 Entering Gaussian System, Link 0=/lustre1/prg/gaussian/bin/G16_C01_Linda_AVX/g16/g16
 Initial command:
 /lustre1/prg/gaussian/bin/G16_C01_Linda_AVX/g16/l1.exe "/lustre1/prg/webmo/data/webmo20/toliste/4374/scratch/Gau-30420.inp" -scrdir="/lustre1/prg/webmo/data/webmo20/toliste/4374/scratch/"
 Default is to use a total of  16 processors:
                               16 via shared-memory
                                1 via Linda
 Entering Link 1 = /lustre1/prg/gaussian/bin/G16_C01_Linda_AVX/g16/l1.exe PID=     30421.
  
 Copyright (c) 1988-2019, Gaussian, Inc.  All Rights Reserved.
  
 This is part of the Gaussian(R) 16 program.  It is based on
 the Gaussian(R) 09 system (copyright 2009, Gaussian, Inc.),
 the Gaussian(R) 03 system (copyright 2003, Gaussian, Inc.),
 the Gaussian(R) 98 system (copyright 1998, Gaussian, Inc.),
 the Gaussian(R) 94 system (copyright 1995, Gaussian, Inc.),
 the Gaussian 92(TM) system (copyright 1992, Gaussian, Inc.),
 the Gaussian 90(TM) system (copyright 1990, Gaussian, Inc.),
 the Gaussian 88(TM) system (copyright 1988, Gaussian, Inc.),
 the Gaussian 86(TM) system (copyright 1986, Carnegie Mellon
 University), and the Gaussian 82(TM) system (copyright 1983,
 Carnegie Mellon University). Gaussian is a federally registered
 trademark of Gaussian, Inc.
  
 This software contains proprietary and confidential information,
 including trade secrets, belonging to Gaussian, Inc.
  
 This software is provided under written license and may be
 used, copied, transmitted, or stored only in accord with that
 written license.
  
 The following legend is applicable only to US Government
 contracts under FAR:
  
                    RESTRICTED RIGHTS LEGEND
  
 Use, reproduction and disclosure by the US Government is
 subject to restrictions as set forth in subparagraphs (a)
 and (c) of the Commercial Computer Software - Restricted
 Rights clause in FAR 52.227-19.
  
 Gaussian, Inc.
 340 Quinnipiac St., Bldg. 40, Wallingford CT 06492
  
  
 ---------------------------------------------------------------
 Warning -- This program may not be used in any manner that
 competes with the business of Gaussian, Inc. or will provide
 assistance to any competitor of Gaussian, Inc.  The licensee
 of this program is prohibited from giving any competitor of
 Gaussian, Inc. access to this program.  By using this program,
 the user acknowledges that Gaussian, Inc. is engaged in the
 business of creating and licensing software in the field of
 computational chemistry and represents and warrants to the
 licensee that it is not a competitor of Gaussian, Inc. and that
 it will not use this program in any manner prohibited above.
 ---------------------------------------------------------------
  

 Cite this work as:
 Gaussian 16, Revision C.01,
 M. J. Frisch, G. W. Trucks, H. B. Schlegel, G. E. Scuseria, 
 M. A. Robb, J. R. Cheeseman, G. Scalmani, V. Barone, 
 G. A. Petersson, H. Nakatsuji, X. Li, M. Caricato, A. V. Marenich, 
 J. Bloino, B. G. Janesko, R. Gomperts, B. Mennucci, H. P. Hratchian, 
 J. V. Ortiz, A. F. Izmaylov, J. L. Sonnenberg, D. Williams-Young, 
 F. Ding, F. Lipparini, F. Egidi, J. Goings, B. Peng, A. Petrone, 
 T. Henderson, D. Ranasinghe, V. G. Zakrzewski, J. Gao, N. Rega, 
 G. Zheng, W. Liang, M. Hada, M. Ehara, K. Toyota, R. Fukuda, 
 J. Hasegawa, M. Ishida, T. Nakajima, Y. Honda, O. Kitao, H. Nakai, 
 T. Vreven, K. Throssell, J. A. Montgomery, Jr., J. E. Peralta, 
 F. Ogliaro, M. J. Bearpark, J. J. Heyd, E. N. Brothers, K. N. Kudin, 
 V. N. Staroverov, T. A. Keith, R. Kobayashi, J. Normand, 
 K. Raghavachari, A. P. Rendell, J. C. Burant, S. S. Iyengar, 
 J. Tomasi, M. Cossi, J. M. Millam, M. Klene, C. Adamo, R. Cammi, 
 J. W. Ochterski, R. L. Martin, K. Morokuma, O. Farkas, 
 J. B. Foresman, and D. J. Fox, Gaussian, Inc., Wallingford CT, 2019.
 
 ******************************************
 Gaussian 16:  ES64L-G16RevC.01  3-Jul-2019
                31-Jan-2022 
 ******************************************
 %LindaWorkers=fizika151,fizika152,fizika153,fizika154,fizika155,fizika156,fizika
 157,fizika158
 %chk=bodipy.chk
 SetLPE:  input flags=" -opt "Tsnet.Node.lindarsharg: ssh" "
 SetLPE:    new flags=" -opt "Tsnet.Node.lindarsharg: ssh" -opt 'Tsnet.Node.lindarsharg: ssh'  -nodelist 'fizika151.fizika.bullx fizika152.fizika.bullx fizika153.fizika.bullx fizika154.fizika.bullx fizika155.fizika.bullx fizika156.fizika.bullx fizika157.fizika.bullx fizika158.fizika.bullx' -env GAUSS_MDEF=14763950080 -env GAUSS_EXEDIR="/lustre1/prg/gaussian/bin/G16_C01_Linda_AVX/g16/bsd:/lustre1/prg/gaussian/bin/G16_C01_Linda_AVX/g16/private:/lustre1/prg/gaussian/bin/G16_C01_Linda_AVX/g16""
 Will use up to    8 processors via Linda.
 ----------------------------------------------------------------------
 #p m062x cc-pvdz scrf=(cpcm,solvent=n,n-DiMethylFormamide) td=(nstate=
 6,root=1) opt=tight nosymm density=all int=ultrafine fchk
 ----------------------------------------------------------------------
 1/7=10,18=20,19=15,26=6,38=1/1,3;
 2/9=110,12=2,15=1,17=6,18=5,40=1/2;
 3/5=16,11=9,25=1,30=1,70=2101,71=1,72=148,74=-55,75=-5/1,2,3,8;
 4//1;
 5/5=2,38=5,53=148/2;
 8/6=1,10=1,107=1,108=6/1;
 9/8=1,15=2,30=10,41=6,42=1,70=2/14;
 10/5=4,28=1,31=1/2;
 6/7=2,8=2,9=2,10=2,22=-2/1;
 7/12=6,13=5,14=1,30=1/1,2,3,16;
 1/7=10,18=20,19=15,26=6/3(2);
 2/9=110,15=1/2;
 99//99;
 2/9=110,15=1/2;
 3/5=16,11=9,25=1,30=1,70=2105,71=1,72=148,74=-55,75=-5/1,2,3,8;
 4/5=5,16=3,69=1/1;
 5/5=2,38=5,53=148/2;
 8/6=1,10=1,107=1,108=6/1;
 9/8=1,15=2,30=10,41=6,42=1,49=4,70=2/14;
 10/5=4,28=1,31=1/2;
 7/12=6,13=5,14=1,30=1/1,2,3,16;
 1/7=10,18=20,19=15,26=6/3(-8);
 2/9=110,15=1/2;
 6/7=2,8=2,9=2,10=2,22=-2/1;
 99/9=10/99;
 Leave Link    1 at Mon Jan 31 14:43:43 2022, MaxMem=           0 cpu:               2.3 elap:               0.2
 (Enter /lustre1/prg/gaussian/bin/G16_C01_Linda_AVX/g16/l101.exe)
 --------------------------------------
 BDP-PP-phenyl, optimized R1 in toluene
 --------------------------------------
 Symbolic Z-matrix:
 Charge =  0 Multiplicity = 1
 N                     12.9455  -9.17441  -0.67918 
 C                     14.09211  -9.79984  -0.43656 
 C                     14.92112  -8.98055   0.38003 
 C                     14.18185  -7.80336   0.62711 
 C                     12.9552  -7.92114  -0.03778 
 C                     10.5502  -4.93335   0.10629 
 C                     10.55775  -3.54846   0.20397 
 C                     11.76274  -2.8445    0.25565 
 C                     12.96423  -3.55132   0.17089 
 C                     12.96584  -4.93621   0.07313 
 C                     11.75691  -5.67489   0.07416 
 C                     11.75382  -7.11821  -0.02702 
 C                     10.5506  -7.91836  -0.0066 
 C                     9.34192  -7.79806   0.68993 
 C                     8.59349  -8.97327   0.46128 
 C                     9.39914  -9.79405  -0.37694 
 N                     10.54064  -9.17133  -0.6487 
 F                     11.72933  -11.0663  -1.55738 
 B                     11.73184  -9.68129  -1.49992 
 F                     11.71659  -9.10067  -2.76128 
 H                     14.27987  -10.78149  -0.86393 
 H                     14.46594  -6.98524   1.28009 
 H                     9.59604  -5.44717   0.01644 
 H                     9.60942  -3.01042   0.22578 
 H                     11.76509  -1.75722   0.33363 
 H                     13.91406  -3.0155    0.16644 
 H                     13.91597  -5.45231  -0.04277 
 H                     9.07672  -6.97952   1.35025 
 H                     9.19826  -10.77517  -0.79954 
 C                     16.26198  -9.31157   0.84175 
 C                     17.04739  -8.35407   1.51166 
 C                     16.80494  -10.59503   0.63603 
 C                     18.32402  -8.66959   1.96096 
 C                     18.08196  -10.9071   1.08621 
 C                     18.84829  -9.94716   1.75123 
 H                     16.65425  -7.34973   1.67147 
 H                     16.21613  -11.35892   0.12743 
 H                     18.91722  -7.91351   2.47621 
 H                     18.48302  -11.90725   0.91962 
 H                     19.85033  -10.19344   2.10359 
 C                     7.26416  -9.30139   0.95701 
 C                     6.7103   -10.5813   0.75828 
 C                     6.50104  -8.34468   1.65337 
 C                     5.44429  -10.89067   1.24025 
 C                     5.2354   -8.6575    2.13449 
 C                     4.70004  -9.93148   1.93105 
 H                     7.28185  -11.34461   0.22951 
 H                     6.90278  -7.34312   1.80911 
 H                     5.0345   -11.88804   1.07833 
 H                     4.65946  -7.90206   2.6699 
 H                     3.70657  -10.17557   2.30829 
 
 ITRead=  0  0  0  0  0  0  0  0  0  0  0  0  0  0  0  0  0  0  0  0
 ITRead=  0  0  0  0  0  0  0  0  0  0  0  0  0  0  0  0  0  0  0  0
 ITRead=  0  0  0  0  0  0  0  0  0  0  0
 MicOpt= -1 -1 -1 -1 -1 -1 -1 -1 -1 -1 -1 -1 -1 -1 -1 -1 -1 -1 -1 -1
 MicOpt= -1 -1 -1 -1 -1 -1 -1 -1 -1 -1 -1 -1 -1 -1 -1 -1 -1 -1 -1 -1
 MicOpt= -1 -1 -1 -1 -1 -1 -1 -1 -1 -1 -1
 NAtoms=     51 NQM=       51 NQMF=       0 NMMI=      0 NMMIF=      0
                NMic=       0 NMicF=      0.
                    Isotopes and Nuclear Properties:
 (Nuclear quadrupole moments (NQMom) in fm**2, nuclear magnetic moments (NMagM)
  in nuclear magnetons)

  Atom         1           2           3           4           5           6           7           8           9          10
 IAtWgt=          14          12          12          12          12          12          12          12          12          12
 AtmWgt=  14.0030740  12.0000000  12.0000000  12.0000000  12.0000000  12.0000000  12.0000000  12.0000000  12.0000000  12.0000000
 NucSpn=           2           0           0           0           0           0           0           0           0           0
 AtZEff=  -0.0000000  -0.0000000  -0.0000000  -0.0000000  -0.0000000  -0.0000000  -0.0000000  -0.0000000  -0.0000000  -0.0000000
 NQMom=    2.0440000   0.0000000   0.0000000   0.0000000   0.0000000   0.0000000   0.0000000   0.0000000   0.0000000   0.0000000
 NMagM=    0.4037610   0.0000000   0.0000000   0.0000000   0.0000000   0.0000000   0.0000000   0.0000000   0.0000000   0.0000000
 AtZNuc=   7.0000000   6.0000000   6.0000000   6.0000000   6.0000000   6.0000000   6.0000000   6.0000000   6.0000000   6.0000000

  Atom        11          12          13          14          15          16          17          18          19          20
 IAtWgt=          12          12          12          12          12          12          14          19          11          19
 AtmWgt=  12.0000000  12.0000000  12.0000000  12.0000000  12.0000000  12.0000000  14.0030740  18.9984032  11.0093053  18.9984032
 NucSpn=           0           0           0           0           0           0           2           1           3           1
 AtZEff=  -0.0000000  -0.0000000  -0.0000000  -0.0000000  -0.0000000  -0.0000000  -0.0000000  -0.0000000  -0.0000000  -0.0000000
 NQMom=    0.0000000   0.0000000   0.0000000   0.0000000   0.0000000   0.0000000   2.0440000   0.0000000   4.0590000   0.0000000
 NMagM=    0.0000000   0.0000000   0.0000000   0.0000000   0.0000000   0.0000000   0.4037610   2.6288670   2.6886370   2.6288670
 AtZNuc=   6.0000000   6.0000000   6.0000000   6.0000000   6.0000000   6.0000000   7.0000000   9.0000000   5.0000000   9.0000000

  Atom        21          22          23          24          25          26          27          28          29          30
 IAtWgt=           1           1           1           1           1           1           1           1           1          12
 AtmWgt=   1.0078250   1.0078250   1.0078250   1.0078250   1.0078250   1.0078250   1.0078250   1.0078250   1.0078250  12.0000000
 NucSpn=           1           1           1           1           1           1           1           1           1           0
 AtZEff=  -0.0000000  -0.0000000  -0.0000000  -0.0000000  -0.0000000  -0.0000000  -0.0000000  -0.0000000  -0.0000000  -0.0000000
 NQMom=    0.0000000   0.0000000   0.0000000   0.0000000   0.0000000   0.0000000   0.0000000   0.0000000   0.0000000   0.0000000
 NMagM=    2.7928460   2.7928460   2.7928460   2.7928460   2.7928460   2.7928460   2.7928460   2.7928460   2.7928460   0.0000000
 AtZNuc=   1.0000000   1.0000000   1.0000000   1.0000000   1.0000000   1.0000000   1.0000000   1.0000000   1.0000000   6.0000000

  Atom        31          32          33          34          35          36          37          38          39          40
 IAtWgt=          12          12          12          12          12           1           1           1           1           1
 AtmWgt=  12.0000000  12.0000000  12.0000000  12.0000000  12.0000000   1.0078250   1.0078250   1.0078250   1.0078250   1.0078250
 NucSpn=           0           0           0           0           0           1           1           1           1           1
 AtZEff=  -0.0000000  -0.0000000  -0.0000000  -0.0000000  -0.0000000  -0.0000000  -0.0000000  -0.0000000  -0.0000000  -0.0000000
 NQMom=    0.0000000   0.0000000   0.0000000   0.0000000   0.0000000   0.0000000   0.0000000   0.0000000   0.0000000   0.0000000
 NMagM=    0.0000000   0.0000000   0.0000000   0.0000000   0.0000000   2.7928460   2.7928460   2.7928460   2.7928460   2.7928460
 AtZNuc=   6.0000000   6.0000000   6.0000000   6.0000000   6.0000000   1.0000000   1.0000000   1.0000000   1.0000000   1.0000000

  Atom        41          42          43          44          45          46          47          48          49          50
 IAtWgt=          12          12          12          12          12          12           1           1           1           1
 AtmWgt=  12.0000000  12.0000000  12.0000000  12.0000000  12.0000000  12.0000000   1.0078250   1.0078250   1.0078250   1.0078250
 NucSpn=           0           0           0           0           0           0           1           1           1           1
 AtZEff=  -0.0000000  -0.0000000  -0.0000000  -0.0000000  -0.0000000  -0.0000000  -0.0000000  -0.0000000  -0.0000000  -0.0000000
 NQMom=    0.0000000   0.0000000   0.0000000   0.0000000   0.0000000   0.0000000   0.0000000   0.0000000   0.0000000   0.0000000
 NMagM=    0.0000000   0.0000000   0.0000000   0.0000000   0.0000000   0.0000000   2.7928460   2.7928460   2.7928460   2.7928460
 AtZNuc=   6.0000000   6.0000000   6.0000000   6.0000000   6.0000000   6.0000000   1.0000000   1.0000000   1.0000000   1.0000000

  Atom        51
 IAtWgt=           1
 AtmWgt=   1.0078250
 NucSpn=           1
 AtZEff=  -0.0000000
 NQMom=    0.0000000
 NMagM=    2.7928460
 AtZNuc=   1.0000000
 Leave Link  101 at Mon Jan 31 14:43:44 2022, MaxMem= 14763950080 cpu:              12.2 elap:               0.8
 (Enter /lustre1/prg/gaussian/bin/G16_C01_Linda_AVX/g16/l103.exe)

 GradGradGradGradGradGradGradGradGradGradGradGradGradGradGradGradGradGrad
 Berny optimization.
 Initialization pass.
                           ----------------------------
                           !    Initial Parameters    !
                           ! (Angstroms and Degrees)  !
 --------------------------                            --------------------------
 ! Name  Definition              Value          Derivative Info.                !
 --------------------------------------------------------------------------------
 ! R1    R(1,2)                  1.3284         estimate D2E/DX2                !
 ! R2    R(1,5)                  1.4079         estimate D2E/DX2                !
 ! R3    R(1,19)                 1.5503         estimate D2E/DX2                !
 ! R4    R(2,3)                  1.4231         estimate D2E/DX2                !
 ! R5    R(2,21)                 1.087          estimate D2E/DX2                !
 ! R6    R(3,4)                  1.4119         estimate D2E/DX2                !
 ! R7    R(3,30)                 1.4563         estimate D2E/DX2                !
 ! R8    R(4,5)                  1.4002         estimate D2E/DX2                !
 ! R9    R(4,22)                 1.0846         estimate D2E/DX2                !
 ! R10   R(5,12)                 1.445          estimate D2E/DX2                !
 ! R11   R(6,7)                  1.3883         estimate D2E/DX2                !
 ! R12   R(6,11)                 1.4167         estimate D2E/DX2                !
 ! R13   R(6,23)                 1.0874         estimate D2E/DX2                !
 ! R14   R(7,8)                  1.3965         estimate D2E/DX2                !
 ! R15   R(7,24)                 1.0905         estimate D2E/DX2                !
 ! R16   R(8,9)                  1.3966         estimate D2E/DX2                !
 ! R17   R(8,25)                 1.0901         estimate D2E/DX2                !
 ! R18   R(9,10)                 1.3883         estimate D2E/DX2                !
 ! R19   R(9,26)                 1.0905         estimate D2E/DX2                !
 ! R20   R(10,11)                1.4167         estimate D2E/DX2                !
 ! R21   R(10,27)                1.0875         estimate D2E/DX2                !
 ! R22   R(11,12)                1.4469         estimate D2E/DX2                !
 ! R23   R(12,13)                1.4451         estimate D2E/DX2                !
 ! R24   R(13,14)                1.4002         estimate D2E/DX2                !
 ! R25   R(13,17)                1.408          estimate D2E/DX2                !
 ! R26   R(14,15)                1.4119         estimate D2E/DX2                !
 ! R27   R(14,28)                1.0846         estimate D2E/DX2                !
 ! R28   R(15,16)                1.4232         estimate D2E/DX2                !
 ! R29   R(15,41)                1.4562         estimate D2E/DX2                !
 ! R30   R(16,17)                1.3284         estimate D2E/DX2                !
 ! R31   R(16,29)                1.087          estimate D2E/DX2                !
 ! R32   R(17,19)                1.5504         estimate D2E/DX2                !
 ! R33   R(18,19)                1.3862         estimate D2E/DX2                !
 ! R34   R(19,20)                1.3887         estimate D2E/DX2                !
 ! R35   R(30,31)                1.408          estimate D2E/DX2                !
 ! R36   R(30,32)                1.4087         estimate D2E/DX2                !
 ! R37   R(31,33)                1.3897         estimate D2E/DX2                !
 ! R38   R(31,36)                1.0903         estimate D2E/DX2                !
 ! R39   R(32,34)                1.3895         estimate D2E/DX2                !
 ! R40   R(32,37)                1.0904         estimate D2E/DX2                !
 ! R41   R(33,35)                1.3968         estimate D2E/DX2                !
 ! R42   R(33,38)                1.0904         estimate D2E/DX2                !
 ! R43   R(34,35)                1.3968         estimate D2E/DX2                !
 ! R44   R(34,39)                1.0904         estimate D2E/DX2                !
 ! R45   R(35,40)                1.0904         estimate D2E/DX2                !
 ! R46   R(41,42)                1.4087         estimate D2E/DX2                !
 ! R47   R(41,43)                1.408          estimate D2E/DX2                !
 ! R48   R(42,44)                1.3895         estimate D2E/DX2                !
 ! R49   R(42,47)                1.0904         estimate D2E/DX2                !
 ! R50   R(43,45)                1.3897         estimate D2E/DX2                !
 ! R51   R(43,48)                1.0903         estimate D2E/DX2                !
 ! R52   R(44,46)                1.3968         estimate D2E/DX2                !
 ! R53   R(44,49)                1.0904         estimate D2E/DX2                !
 ! R54   R(45,46)                1.3968         estimate D2E/DX2                !
 ! R55   R(45,50)                1.0904         estimate D2E/DX2                !
 ! R56   R(46,51)                1.0904         estimate D2E/DX2                !
 ! A1    A(2,1,5)              109.2649         estimate D2E/DX2                !
 ! A2    A(2,1,19)             128.2032         estimate D2E/DX2                !
 ! A3    A(5,1,19)             122.5218         estimate D2E/DX2                !
 ! A4    A(1,2,3)              109.667          estimate D2E/DX2                !
 ! A5    A(1,2,21)             120.1629         estimate D2E/DX2                !
 ! A6    A(3,2,21)             130.1571         estimate D2E/DX2                !
 ! A7    A(2,3,4)              105.9861         estimate D2E/DX2                !
 ! A8    A(2,3,30)             125.975          estimate D2E/DX2                !
 ! A9    A(4,3,30)             128.0368         estimate D2E/DX2                !
 ! A10   A(3,4,5)              107.7865         estimate D2E/DX2                !
 ! A11   A(3,4,22)             126.664          estimate D2E/DX2                !
 ! A12   A(5,4,22)             125.3652         estimate D2E/DX2                !
 ! A13   A(1,5,4)              107.2925         estimate D2E/DX2                !
 ! A14   A(1,5,12)             119.4906         estimate D2E/DX2                !
 ! A15   A(4,5,12)             132.6913         estimate D2E/DX2                !
 ! A16   A(7,6,11)             121.2705         estimate D2E/DX2                !
 ! A17   A(7,6,23)             118.8109         estimate D2E/DX2                !
 ! A18   A(11,6,23)            119.8799         estimate D2E/DX2                !
 ! A19   A(6,7,8)              120.6726         estimate D2E/DX2                !
 ! A20   A(6,7,24)             119.2623         estimate D2E/DX2                !
 ! A21   A(8,7,24)             120.0592         estimate D2E/DX2                !
 ! A22   A(7,8,9)              119.0103         estimate D2E/DX2                !
 ! A23   A(7,8,25)             120.4845         estimate D2E/DX2                !
 ! A24   A(9,8,25)             120.4845         estimate D2E/DX2                !
 ! A25   A(8,9,10)             120.6724         estimate D2E/DX2                !
 ! A26   A(8,9,26)             120.0591         estimate D2E/DX2                !
 ! A27   A(10,9,26)            119.2626         estimate D2E/DX2                !
 ! A28   A(9,10,11)            121.2691         estimate D2E/DX2                !
 ! A29   A(9,10,27)            118.8119         estimate D2E/DX2                !
 ! A30   A(11,10,27)           119.8804         estimate D2E/DX2                !
 ! A31   A(6,11,10)            116.9967         estimate D2E/DX2                !
 ! A32   A(6,11,12)            121.4603         estimate D2E/DX2                !
 ! A33   A(10,11,12)           121.4589         estimate D2E/DX2                !
 ! A34   A(5,12,11)            123.5752         estimate D2E/DX2                !
 ! A35   A(5,12,13)            112.6229         estimate D2E/DX2                !
 ! A36   A(11,12,13)           123.5814         estimate D2E/DX2                !
 ! A37   A(12,13,14)           132.7018         estimate D2E/DX2                !
 ! A38   A(12,13,17)           119.4844         estimate D2E/DX2                !
 ! A39   A(14,13,17)           107.2906         estimate D2E/DX2                !
 ! A40   A(13,14,15)           107.7885         estimate D2E/DX2                !
 ! A41   A(13,14,28)           125.364          estimate D2E/DX2                !
 ! A42   A(15,14,28)           126.6654         estimate D2E/DX2                !
 ! A43   A(14,15,16)           105.9826         estimate D2E/DX2                !
 ! A44   A(14,15,41)           128.0477         estimate D2E/DX2                !
 ! A45   A(16,15,41)           125.9675         estimate D2E/DX2                !
 ! A46   A(15,16,17)           109.6688         estimate D2E/DX2                !
 ! A47   A(15,16,29)           130.1609         estimate D2E/DX2                !
 ! A48   A(17,16,29)           120.1579         estimate D2E/DX2                !
 ! A49   A(13,17,16)           109.2662         estimate D2E/DX2                !
 ! A50   A(13,17,19)           122.5262         estimate D2E/DX2                !
 ! A51   A(16,17,19)           128.1967         estimate D2E/DX2                !
 ! A52   A(1,19,17)            101.7287         estimate D2E/DX2                !
 ! A53   A(1,19,18)            110.4892         estimate D2E/DX2                !
 ! A54   A(1,19,20)            110.6562         estimate D2E/DX2                !
 ! A55   A(17,19,18)           110.4881         estimate D2E/DX2                !
 ! A56   A(17,19,20)           110.6555         estimate D2E/DX2                !
 ! A57   A(18,19,20)           112.3391         estimate D2E/DX2                !
 ! A58   A(3,30,31)            120.6568         estimate D2E/DX2                !
 ! A59   A(3,30,32)            121.0438         estimate D2E/DX2                !
 ! A60   A(31,30,32)           118.2989         estimate D2E/DX2                !
 ! A61   A(30,31,33)           120.7886         estimate D2E/DX2                !
 ! A62   A(30,31,36)           119.671          estimate D2E/DX2                !
 ! A63   A(33,31,36)           119.5375         estimate D2E/DX2                !
 ! A64   A(30,32,34)           120.7659         estimate D2E/DX2                !
 ! A65   A(30,32,37)           119.8865         estimate D2E/DX2                !
 ! A66   A(34,32,37)           119.3444         estimate D2E/DX2                !
 ! A67   A(31,33,35)           120.2603         estimate D2E/DX2                !
 ! A68   A(31,33,38)           119.6764         estimate D2E/DX2                !
 ! A69   A(35,33,38)           120.063          estimate D2E/DX2                !
 ! A70   A(32,34,35)           120.2727         estimate D2E/DX2                !
 ! A71   A(32,34,39)           119.6398         estimate D2E/DX2                !
 ! A72   A(35,34,39)           120.0873         estimate D2E/DX2                !
 ! A73   A(33,35,34)           119.6133         estimate D2E/DX2                !
 ! A74   A(33,35,40)           120.1994         estimate D2E/DX2                !
 ! A75   A(34,35,40)           120.1872         estimate D2E/DX2                !
 ! A76   A(15,41,42)           121.0391         estimate D2E/DX2                !
 ! A77   A(15,41,43)           120.6645         estimate D2E/DX2                !
 ! A78   A(42,41,43)           118.2959         estimate D2E/DX2                !
 ! A79   A(41,42,44)           120.7689         estimate D2E/DX2                !
 ! A80   A(41,42,47)           119.8919         estimate D2E/DX2                !
 ! A81   A(44,42,47)           119.3363         estimate D2E/DX2                !
 ! A82   A(41,43,45)           120.7891         estimate D2E/DX2                !
 ! A83   A(41,43,48)           119.6768         estimate D2E/DX2                !
 ! A84   A(45,43,48)           119.5314         estimate D2E/DX2                !
 ! A85   A(42,44,46)           120.2717         estimate D2E/DX2                !
 ! A86   A(42,44,49)           119.6406         estimate D2E/DX2                !
 ! A87   A(46,44,49)           120.0875         estimate D2E/DX2                !
 ! A88   A(43,45,46)           120.262          estimate D2E/DX2                !
 ! A89   A(43,45,50)           119.6751         estimate D2E/DX2                !
 ! A90   A(46,45,50)           120.0626         estimate D2E/DX2                !
 ! A91   A(44,46,45)           119.6122         estimate D2E/DX2                !
 ! A92   A(44,46,51)           120.1883         estimate D2E/DX2                !
 ! A93   A(45,46,51)           120.1995         estimate D2E/DX2                !
 ! D1    D(5,1,2,3)             -0.1655         estimate D2E/DX2                !
 ! D2    D(5,1,2,21)          -178.9807         estimate D2E/DX2                !
 ! D3    D(19,1,2,3)          -179.0177         estimate D2E/DX2                !
 ! D4    D(19,1,2,21)            2.167          estimate D2E/DX2                !
 ! D5    D(2,1,5,4)             -0.1967         estimate D2E/DX2                !
 ! D6    D(2,1,5,12)          -172.9086         estimate D2E/DX2                !
 ! D7    D(19,1,5,4)           178.7337         estimate D2E/DX2                !
 ! D8    D(19,1,5,12)            6.0217         estimate D2E/DX2                !
 ! D9    D(2,1,19,17)          140.3064         estimate D2E/DX2                !
 ! D10   D(2,1,19,18)           22.9711         estimate D2E/DX2                !
 ! D11   D(2,1,19,20)         -102.0939         estimate D2E/DX2                !
 ! D12   D(5,1,19,17)          -38.4086         estimate D2E/DX2                !
 ! D13   D(5,1,19,18)         -155.7439         estimate D2E/DX2                !
 ! D14   D(5,1,19,20)           79.1911         estimate D2E/DX2                !
 ! D15   D(1,2,3,4)              0.4574         estimate D2E/DX2                !
 ! D16   D(1,2,3,30)          -179.0483         estimate D2E/DX2                !
 ! D17   D(21,2,3,4)           179.1172         estimate D2E/DX2                !
 ! D18   D(21,2,3,30)           -0.3886         estimate D2E/DX2                !
 ! D19   D(2,3,4,5)             -0.5678         estimate D2E/DX2                !
 ! D20   D(2,3,4,22)           174.6843         estimate D2E/DX2                !
 ! D21   D(30,3,4,5)           178.9244         estimate D2E/DX2                !
 ! D22   D(30,3,4,22)           -5.8235         estimate D2E/DX2                !
 ! D23   D(2,3,30,31)          172.3184         estimate D2E/DX2                !
 ! D24   D(2,3,30,32)           -7.935          estimate D2E/DX2                !
 ! D25   D(4,3,30,31)           -7.0783         estimate D2E/DX2                !
 ! D26   D(4,3,30,32)          172.6683         estimate D2E/DX2                !
 ! D27   D(3,4,5,1)              0.4792         estimate D2E/DX2                !
 ! D28   D(3,4,5,12)           171.839          estimate D2E/DX2                !
 ! D29   D(22,4,5,1)          -174.8506         estimate D2E/DX2                !
 ! D30   D(22,4,5,12)           -3.4909         estimate D2E/DX2                !
 ! D31   D(1,5,12,11)         -153.2526         estimate D2E/DX2                !
 ! D32   D(1,5,12,13)           31.9771         estimate D2E/DX2                !
 ! D33   D(4,5,12,11)           36.2325         estimate D2E/DX2                !
 ! D34   D(4,5,12,13)         -138.5378         estimate D2E/DX2                !
 ! D35   D(11,6,7,8)             0.8552         estimate D2E/DX2                !
 ! D36   D(11,6,7,24)          179.9822         estimate D2E/DX2                !
 ! D37   D(23,6,7,8)          -176.8789         estimate D2E/DX2                !
 ! D38   D(23,6,7,24)            2.248          estimate D2E/DX2                !
 ! D39   D(7,6,11,10)           -3.3153         estimate D2E/DX2                !
 ! D40   D(7,6,11,12)          179.9748         estimate D2E/DX2                !
 ! D41   D(23,6,11,10)         174.395          estimate D2E/DX2                !
 ! D42   D(23,6,11,12)          -2.3149         estimate D2E/DX2                !
 ! D43   D(6,7,8,9)              1.7289         estimate D2E/DX2                !
 ! D44   D(6,7,8,25)          -179.9205         estimate D2E/DX2                !
 ! D45   D(24,7,8,9)          -177.3911         estimate D2E/DX2                !
 ! D46   D(24,7,8,25)            0.9595         estimate D2E/DX2                !
 ! D47   D(7,8,9,10)            -1.7307         estimate D2E/DX2                !
 ! D48   D(7,8,9,26)           177.3809         estimate D2E/DX2                !
 ! D49   D(25,8,9,10)          179.9187         estimate D2E/DX2                !
 ! D50   D(25,8,9,26)           -0.9697         estimate D2E/DX2                !
 ! D51   D(8,9,10,11)           -0.8516         estimate D2E/DX2                !
 ! D52   D(8,9,10,27)          176.8869         estimate D2E/DX2                !
 ! D53   D(26,9,10,11)        -179.9702         estimate D2E/DX2                !
 ! D54   D(26,9,10,27)          -2.2317         estimate D2E/DX2                !
 ! D55   D(9,10,11,6)            3.3134         estimate D2E/DX2                !
 ! D56   D(9,10,11,12)        -179.9766         estimate D2E/DX2                !
 ! D57   D(27,10,11,6)        -174.4012         estimate D2E/DX2                !
 ! D58   D(27,10,11,12)          2.3087         estimate D2E/DX2                !
 ! D59   D(6,11,12,5)         -178.777          estimate D2E/DX2                !
 ! D60   D(6,11,12,13)          -4.5732         estimate D2E/DX2                !
 ! D61   D(10,11,12,5)           4.6599         estimate D2E/DX2                !
 ! D62   D(10,11,12,13)        178.8637         estimate D2E/DX2                !
 ! D63   D(5,12,13,14)         138.5248         estimate D2E/DX2                !
 ! D64   D(5,12,13,17)         -32.0122         estimate D2E/DX2                !
 ! D65   D(11,12,13,14)        -36.2452         estimate D2E/DX2                !
 ! D66   D(11,12,13,17)        153.2179         estimate D2E/DX2                !
 ! D67   D(12,13,14,15)       -171.8702         estimate D2E/DX2                !
 ! D68   D(12,13,14,28)          3.4891         estimate D2E/DX2                !
 ! D69   D(17,13,14,15)         -0.4908         estimate D2E/DX2                !
 ! D70   D(17,13,14,28)        174.8685         estimate D2E/DX2                !
 ! D71   D(12,13,17,16)        172.9373         estimate D2E/DX2                !
 ! D72   D(12,13,17,19)         -5.9485         estimate D2E/DX2                !
 ! D73   D(14,13,17,16)          0.2072         estimate D2E/DX2                !
 ! D74   D(14,13,17,19)       -178.6786         estimate D2E/DX2                !
 ! D75   D(13,14,15,16)          0.5763         estimate D2E/DX2                !
 ! D76   D(13,14,15,41)       -178.9104         estimate D2E/DX2                !
 ! D77   D(28,14,15,16)       -174.7056         estimate D2E/DX2                !
 ! D78   D(28,14,15,41)          5.8078         estimate D2E/DX2                !
 ! D79   D(14,15,16,17)         -0.4595         estimate D2E/DX2                !
 ! D80   D(14,15,16,29)       -179.1546         estimate D2E/DX2                !
 ! D81   D(41,15,16,17)        179.041          estimate D2E/DX2                !
 ! D82   D(41,15,16,29)          0.3459         estimate D2E/DX2                !
 ! D83   D(14,15,41,42)       -173.0047         estimate D2E/DX2                !
 ! D84   D(14,15,41,43)          6.7562         estimate D2E/DX2                !
 ! D85   D(16,15,41,42)          7.6051         estimate D2E/DX2                !
 ! D86   D(16,15,41,43)       -172.634          estimate D2E/DX2                !
 ! D87   D(15,16,17,13)          0.1603         estimate D2E/DX2                !
 ! D88   D(15,16,17,19)        178.9649         estimate D2E/DX2                !
 ! D89   D(29,16,17,13)        179.007          estimate D2E/DX2                !
 ! D90   D(29,16,17,19)         -2.1885         estimate D2E/DX2                !
 ! D91   D(13,17,19,1)          38.3708         estimate D2E/DX2                !
 ! D92   D(13,17,19,18)        155.7069         estimate D2E/DX2                !
 ! D93   D(13,17,19,20)        -79.2294         estimate D2E/DX2                !
 ! D94   D(16,17,19,1)        -140.2907         estimate D2E/DX2                !
 ! D95   D(16,17,19,18)        -22.9546         estimate D2E/DX2                !
 ! D96   D(16,17,19,20)        102.1091         estimate D2E/DX2                !
 ! D97   D(3,30,31,33)         179.5871         estimate D2E/DX2                !
 ! D98   D(3,30,31,36)          -1.0368         estimate D2E/DX2                !
 ! D99   D(32,30,31,33)         -0.1663         estimate D2E/DX2                !
 ! D100  D(32,30,31,36)        179.2098         estimate D2E/DX2                !
 ! D101  D(3,30,32,34)        -179.6061         estimate D2E/DX2                !
 ! D102  D(3,30,32,37)          -0.2542         estimate D2E/DX2                !
 ! D103  D(31,30,32,34)          0.1463         estimate D2E/DX2                !
 ! D104  D(31,30,32,37)        179.4983         estimate D2E/DX2                !
 ! D105  D(30,31,33,35)          0.0824         estimate D2E/DX2                !
 ! D106  D(30,31,33,38)        179.8969         estimate D2E/DX2                !
 ! D107  D(36,31,33,35)       -179.2945         estimate D2E/DX2                !
 ! D108  D(36,31,33,38)          0.52           estimate D2E/DX2                !
 ! D109  D(30,32,34,35)         -0.0424         estimate D2E/DX2                !
 ! D110  D(30,32,34,39)        179.8229         estimate D2E/DX2                !
 ! D111  D(37,32,34,35)       -179.3978         estimate D2E/DX2                !
 ! D112  D(37,32,34,39)          0.4675         estimate D2E/DX2                !
 ! D113  D(31,33,35,34)          0.0254         estimate D2E/DX2                !
 ! D114  D(31,33,35,40)        179.9589         estimate D2E/DX2                !
 ! D115  D(38,33,35,34)       -179.7884         estimate D2E/DX2                !
 ! D116  D(38,33,35,40)          0.1451         estimate D2E/DX2                !
 ! D117  D(32,34,35,33)         -0.0453         estimate D2E/DX2                !
 ! D118  D(32,34,35,40)       -179.9788         estimate D2E/DX2                !
 ! D119  D(39,34,35,33)       -179.91           estimate D2E/DX2                !
 ! D120  D(39,34,35,40)          0.1565         estimate D2E/DX2                !
 ! D121  D(15,41,42,44)        179.6373         estimate D2E/DX2                !
 ! D122  D(15,41,42,47)          0.2615         estimate D2E/DX2                !
 ! D123  D(43,41,42,44)         -0.1292         estimate D2E/DX2                !
 ! D124  D(43,41,42,47)       -179.505          estimate D2E/DX2                !
 ! D125  D(15,41,43,45)       -179.6149         estimate D2E/DX2                !
 ! D126  D(15,41,43,48)          0.99           estimate D2E/DX2                !
 ! D127  D(42,41,43,45)          0.1525         estimate D2E/DX2                !
 ! D128  D(42,41,43,48)       -179.2427         estimate D2E/DX2                !
 ! D129  D(41,42,44,46)          0.0348         estimate D2E/DX2                !
 ! D130  D(41,42,44,49)       -179.8356         estimate D2E/DX2                !
 ! D131  D(47,42,44,46)        179.4141         estimate D2E/DX2                !
 ! D132  D(47,42,44,49)         -0.4564         estimate D2E/DX2                !
 ! D133  D(41,43,45,46)         -0.0814         estimate D2E/DX2                !
 ! D134  D(41,43,45,50)       -179.896          estimate D2E/DX2                !
 ! D135  D(48,43,45,46)        179.3146         estimate D2E/DX2                !
 ! D136  D(48,43,45,50)         -0.5            estimate D2E/DX2                !
 ! D137  D(42,44,46,45)          0.0397         estimate D2E/DX2                !
 ! D138  D(42,44,46,51)        179.9742         estimate D2E/DX2                !
 ! D139  D(49,44,46,45)        179.9095         estimate D2E/DX2                !
 ! D140  D(49,44,46,51)         -0.156          estimate D2E/DX2                !
 ! D141  D(43,45,46,44)         -0.0165         estimate D2E/DX2                !
 ! D142  D(43,45,46,51)       -179.951          estimate D2E/DX2                !
 ! D143  D(50,45,46,44)        179.7974         estimate D2E/DX2                !
 ! D144  D(50,45,46,51)         -0.1372         estimate D2E/DX2                !
 --------------------------------------------------------------------------------
 Trust Radius=3.00D-01 FncErr=5.00D-06 GrdErr=5.00D-06 EigMax=2.50D+02 EigMin=1.00D-04
 Number of steps in this run=    303 maximum allowed number of steps=    306.
 GradGradGradGradGradGradGradGradGradGradGradGradGradGradGradGradGradGrad

 Leave Link  103 at Mon Jan 31 14:43:44 2022, MaxMem= 14763950080 cpu:               0.4 elap:               0.0
 (Enter /lustre1/prg/gaussian/bin/G16_C01_Linda_AVX/g16/l202.exe)
 Symmetry turned off by external request.
 Stoichiometry    C27H19BF2N2
 Framework group  C1[X(C27H19BF2N2)]
 Deg. of freedom   147
 Full point group                 C1      NOp   1
                          Input orientation:                          
 ---------------------------------------------------------------------
 Center     Atomic      Atomic             Coordinates (Angstroms)
 Number     Number       Type             X           Y           Z
 ---------------------------------------------------------------------
      1          7           0       12.945495   -9.174412   -0.679183
      2          6           0       14.092112   -9.799842   -0.436560
      3          6           0       14.921122   -8.980550    0.380030
      4          6           0       14.181846   -7.803357    0.627113
      5          6           0       12.955204   -7.921139   -0.037781
      6          6           0       10.550196   -4.933348    0.106292
      7          6           0       10.557751   -3.548462    0.203967
      8          6           0       11.762738   -2.844497    0.255645
      9          6           0       12.964232   -3.551316    0.170888
     10          6           0       12.965839   -4.936211    0.073125
     11          6           0       11.756912   -5.674888    0.074155
     12          6           0       11.753822   -7.118209   -0.027018
     13          6           0       10.550601   -7.918360   -0.006596
     14          6           0        9.341922   -7.798056    0.689929
     15          6           0        8.593491   -8.973265    0.461283
     16          6           0        9.399142   -9.794053   -0.376936
     17          7           0       10.540639   -9.171330   -0.648696
     18          9           0       11.729325  -11.066300   -1.557376
     19          5           0       11.731838   -9.681291   -1.499920
     20          9           0       11.716587   -9.100669   -2.761279
     21          1           0       14.279872  -10.781493   -0.863932
     22          1           0       14.465943   -6.985240    1.280090
     23          1           0        9.596038   -5.447170    0.016440
     24          1           0        9.609417   -3.010424    0.225776
     25          1           0       11.765089   -1.757224    0.333630
     26          1           0       13.914059   -3.015500    0.166440
     27          1           0       13.915973   -5.452313   -0.042773
     28          1           0        9.076724   -6.979521    1.350250
     29          1           0        9.198265  -10.775168   -0.799536
     30          6           0       16.261984   -9.311568    0.841745
     31          6           0       17.047392   -8.354070    1.511655
     32          6           0       16.804937  -10.595026    0.636028
     33          6           0       18.324017   -8.669587    1.960955
     34          6           0       18.081955  -10.907098    1.086208
     35          6           0       18.848294   -9.947157    1.751233
     36          1           0       16.654251   -7.349732    1.671466
     37          1           0       16.216128  -11.358916    0.127430
     38          1           0       18.917216   -7.913511    2.476214
     39          1           0       18.483020  -11.907252    0.919624
     40          1           0       19.850327  -10.193439    2.103589
     41          6           0        7.264162   -9.301392    0.957008
     42          6           0        6.710301  -10.581301    0.758278
     43          6           0        6.501042   -8.344682    1.653369
     44          6           0        5.444286  -10.890665    1.240246
     45          6           0        5.235403   -8.657499    2.134492
     46          6           0        4.700043   -9.931480    1.931050
     47          1           0        7.281854  -11.344612    0.229513
     48          1           0        6.902777   -7.343117    1.809108
     49          1           0        5.034503  -11.888042    1.078327
     50          1           0        4.659458   -7.902060    2.669901
     51          1           0        3.706572  -10.175574    2.308294
 ---------------------------------------------------------------------
 Rotational constants (GHZ):           0.1897419           0.0762903           0.0617891
 Leave Link  202 at Mon Jan 31 14:43:44 2022, MaxMem= 14763950080 cpu:               0.2 elap:               0.0
 (Enter /lustre1/prg/gaussian/bin/G16_C01_Linda_AVX/g16/l301.exe)
 Standard basis: CC-pVDZ (5D, 7F)
 Ernie: Thresh=  0.10000D-02 Tol=  0.10000D-05 Strict=F.
 Ernie:  64 primitive shells out of 799 were deleted.
   543 basis functions,  1189 primitive gaussians,   575 cartesian basis functions
   109 alpha electrons      109 beta electrons
       nuclear repulsion energy      2854.7840603499 Hartrees.
 IExCor= 4336 DFT=T Ex+Corr=M062X ExCW=0 ScaHFX=  0.540000
 ScaDFX=  1.000000  1.000000  1.000000  1.000000 ScalE2=  1.000000  1.000000
 IRadAn=      5 IRanWt=     -1 IRanGd=            0 ICorTp=0 IEmpDi=  4
 NAtoms=   51 NActive=   51 NUniq=   51 SFac= 1.00D+00 NAtFMM=   60 NAOKFM=F Big=F
 Integral buffers will be    131072 words long.
 Regular integral format.
 Two-electron integral symmetry is turned off.
 ------------------------------------------------------------------------------
 Polarizable Continuum Model (PCM)
 =================================
 Model                : C-PCM.
 Atomic radii         : UFF (Universal Force Field).
 Polarization charges : Total charges.
 Charge compensation  : None.
 Solution method      : On-the-fly selection.
 Cavity type          : Scaled VdW (van der Waals Surface) (Alpha=1.100).
 Cavity algorithm     : GePol (No added spheres)
                        Default sphere list used, NSphG=   51.
                        Lebedev-Laikov grids with approx.  5.0 points / Ang**2.
                        Smoothing algorithm: York/Karplus (Gamma=1.0000).
                        Polarization charges: spherical gaussians, with
                                              point-specific exponents (IZeta= 3).
                        Self-potential: point-specific (ISelfS= 7).
                        Self-field    : sphere-specific E.n sum rule (ISelfD= 2).
 1st derivatives      : Analytical E(r).r(x)/FMM algorithm (CHGder, D1EAlg=3).
                        Cavity 1st derivative terms included.
 Solvent              : n,n-DiMethylFormamide, Eps=  37.219000 Eps(inf)=   2.046330
 ------------------------------------------------------------------------------
 GePol: Number of generator spheres                  =      51
 GePol: Total number of spheres                      =      51
 GePol: Number of exposed spheres                    =      51 (100.00%)
 GePol: Number of points                             =    3827
 GePol: Average weight of points                     =       0.13
 GePol: Minimum weight of points                     =   0.10D-10
 GePol: Maximum weight of points                     =    0.20577
 GePol: Number of points with low weight             =     281
 GePol: Fraction of low-weight points (<1% of avg)   =       7.34%
 GePol: Cavity surface area                          =    487.858 Ang**2
 GePol: Cavity volume                                =    553.325 Ang**3
 Leave Link  301 at Mon Jan 31 14:43:44 2022, MaxMem= 14763950080 cpu:               2.3 elap:               0.2
@@@@@@@@@@@@@@@@@@@@@@@@@@@@@@@@@@@@@@@@@@@@@@@@@@@@@@@@@@@
@    WARNING: REMOTE HOST IDENTIFICATION HAS CHANGED!     @
@@@@@@@@@@@@@@@@@@@@@@@@@@@@@@@@@@@@@@@@@@@@@@@@@@@@@@@@@@@
IT IS POSSIBLE THAT SOMEONE IS DOING SOMETHING NASTY!
Someone could be eavesdropping on you right now (man-in-the-middle attack)!
It is also possible that a host key has just been changed.
The fingerprint for the ECDSA key sent by the remote host is
SHA256:sqT+iLt3MbAHOOAAL1axqp7MGkrLmPKTNyqQohVXPRI.
Please contact your system administrator.
Add correct host key in /lustre2/home/toliste/.ssh/known_hosts to get rid of this message.
Offending ECDSA key in /lustre2/home/toliste/.ssh/known_hosts:48
@@@@@@@@@@@@@@@@@@@@@@@@@@@@@@@@@@@@@@@@@@@@@@@@@@@@@@@@@@@
Password authentication is disabled to avoid man-in-the-middle attacks.
@    WARNING: REMOTE HOST IDENTIFICATION HAS CHANGED!     @
Keyboard-interactive authentication is disabled to avoid man-in-the-middle attacks.
@@@@@@@@@@@@@@@@@@@@@@@@@@@@@@@@@@@@@@@@@@@@@@@@@@@@@@@@@@@
IT IS POSSIBLE THAT SOMEONE IS DOING SOMETHING NASTY!
Someone could be eavesdropping on you right now (man-in-the-middle attack)!
It is also possible that a host key has just been changed.
The fingerprint for the ECDSA key sent by the remote host is
SHA256:PH2VYBecnanobPVUnYwJTS75p/RWDQbfxirf2OWPl/Q.
Please contact your system administrator.
Add correct host key in /lustre2/home/toliste/.ssh/known_hosts to get rid of this message.
Offending ECDSA key in /lustre2/home/toliste/.ssh/known_hosts:41
Password authentication is disabled to avoid man-in-the-middle attacks.
Keyboard-interactive authentication is disabled to avoid man-in-the-middle attacks.
@@@@@@@@@@@@@@@@@@@@@@@@@@@@@@@@@@@@@@@@@@@@@@@@@@@@@@@@@@@
@    WARNING: REMOTE HOST IDENTIFICATION HAS CHANGED!     @
@@@@@@@@@@@@@@@@@@@@@@@@@@@@@@@@@@@@@@@@@@@@@@@@@@@@@@@@@@@
@@@@@@@@@@@@@@@@@@@@@@@@@@@@@@@@@@@@@@@@@@@@@@@@@@@@@@@@@@@
IT IS POSSIBLE THAT SOMEONE IS DOING SOMETHING NASTY!
@    WARNING: REMOTE HOST IDENTIFICATION HAS CHANGED!     @
Someone could be eavesdropping on you right now (man-in-the-middle attack)!
@@@@@@@@@@@@@@@@@@@@@@@@@@@@@@@@@@@@@@@@@@@@@@@@@@@@@@@@@@@
It is also possible that a host key has just been changed.
IT IS POSSIBLE THAT SOMEONE IS DOING SOMETHING NASTY!
Someone could be eavesdropping on you right now (man-in-the-middle attack)!
The fingerprint for the ECDSA key sent by the remote host is
SHA256:LZzp5fD0yVriDP8kFivFsmm13qlZphQ9A9RaIkkcbv4.
It is also possible that a host key has just been changed.
Please contact your system administrator.
The fingerprint for the ECDSA key sent by the remote host is
SHA256:Xp1UsCYx4uiRP1N1RzocIuxHD305n3yJEKpIbz3QnvY.
Add correct host key in /lustre2/home/toliste/.ssh/known_hosts to get rid of this message.
Please contact your system administrator.
Offending ECDSA key in /lustre2/home/toliste/.ssh/known_hosts:47
Add correct host key in /lustre2/home/toliste/.ssh/known_hosts to get rid of this message.
Password authentication is disabled to avoid man-in-the-middle attacks.
Offending ECDSA key in /lustre2/home/toliste/.ssh/known_hosts:40
Keyboard-interactive authentication is disabled to avoid man-in-the-middle attacks.
Password authentication is disabled to avoid man-in-the-middle attacks.
Keyboard-interactive authentication is disabled to avoid man-in-the-middle attacks.
@@@@@@@@@@@@@@@@@@@@@@@@@@@@@@@@@@@@@@@@@@@@@@@@@@@@@@@@@@@
@    WARNING: REMOTE HOST IDENTIFICATION HAS CHANGED!     @
@@@@@@@@@@@@@@@@@@@@@@@@@@@@@@@@@@@@@@@@@@@@@@@@@@@@@@@@@@@
IT IS POSSIBLE THAT SOMEONE IS DOING SOMETHING NASTY!
Someone could be eavesdropping on you right now (man-in-the-middle attack)!
It is also possible that a host key has just been changed.
The fingerprint for the ECDSA key sent by the remote host is
SHA256:G9IhNqu6dDHLAoVyVolw86KnB/d2E/B6HhwdOU+4aFk.
Please contact your system administrator.
Add correct host key in /lustre2/home/toliste/.ssh/known_hosts to get rid of this message.
Offending ECDSA key in /lustre2/home/toliste/.ssh/known_hosts:42
Password authentication is disabled to avoid man-in-the-middle attacks.
Keyboard-interactive authentication is disabled to avoid man-in-the-middle attacks.
@@@@@@@@@@@@@@@@@@@@@@@@@@@@@@@@@@@@@@@@@@@@@@@@@@@@@@@@@@@
@    WARNING: REMOTE HOST IDENTIFICATION HAS CHANGED!     @
@@@@@@@@@@@@@@@@@@@@@@@@@@@@@@@@@@@@@@@@@@@@@@@@@@@@@@@@@@@
IT IS POSSIBLE THAT SOMEONE IS DOING SOMETHING NASTY!
Someone could be eavesdropping on you right now (man-in-the-middle attack)!
It is also possible that a host key has just been changed.
The fingerprint for the ECDSA key sent by the remote host is
SHA256:JCp7y/EeKj0mq10qgTMr5gSwZRP/ZkNtbUyFVE8THRI.
Please contact your system administrator.
Add correct host key in /lustre2/home/toliste/.ssh/known_hosts to get rid of this message.
Offending ECDSA key in /lustre2/home/toliste/.ssh/known_hosts:49
Password authentication is disabled to avoid man-in-the-middle attacks.
Keyboard-interactive authentication is disabled to avoid man-in-the-middle attacks.
@@@@@@@@@@@@@@@@@@@@@@@@@@@@@@@@@@@@@@@@@@@@@@@@@@@@@@@@@@@
@    WARNING: REMOTE HOST IDENTIFICATION HAS CHANGED!     @
@@@@@@@@@@@@@@@@@@@@@@@@@@@@@@@@@@@@@@@@@@@@@@@@@@@@@@@@@@@
IT IS POSSIBLE THAT SOMEONE IS DOING SOMETHING NASTY!
Someone could be eavesdropping on you right now (man-in-the-middle attack)!
It is also possible that a host key has just been changed.
The fingerprint for the ECDSA key sent by the remote host is
SHA256:/AjTURhXCRUKek4UbVaKgMyDtvZS7NxutTthFLfcf4E.
Please contact your system administrator.
Add correct host key in /lustre2/home/toliste/.ssh/known_hosts to get rid of this message.
Offending ECDSA key in /lustre2/home/toliste/.ssh/known_hosts:39
Password authentication is disabled to avoid man-in-the-middle attacks.
Keyboard-interactive authentication is disabled to avoid man-in-the-middle attacks.
 (Enter /lustre1/prg/gaussian/bin/G16_C01_Linda_AVX/g16/linda-exe/l302.exel)
 NPDir=0 NMtPBC=     1 NCelOv=     1 NCel=       1 NClECP=     1 NCelD=      1
         NCelK=      1 NCelE2=     1 NClLst=     1 CellRange=     0.0.
 One-electron integrals computed using PRISM.
 NBasis=   543 RedAO= T EigKep=  2.66D-04  NBF=   543
 NBsUse=   543 1.00D-06 EigRej= -1.00D+00 NBFU=   543
 Precomputing XC quadrature grid using
 IXCGrd= 4 IRadAn=           5 IRanWt=          -1 IRanGd=           0 AccXCQ= 0.00D+00.
 Generated NRdTot=       0 NPtTot=           0 NUsed=           0 NTot=          32
 NSgBfM=   557   557   557   557   557 MxSgAt=    51 MxSgA2=    51.
 Leave Link  302 at Mon Jan 31 14:43:48 2022, MaxMem= 14763950080 cpu:              30.7 elap:               2.0
 (Enter /lustre1/prg/gaussian/bin/G16_C01_Linda_AVX/g16/l303.exe)
 DipDrv:  MaxL=1.
 Leave Link  303 at Mon Jan 31 14:43:48 2022, MaxMem= 14763950080 cpu:               2.7 elap:               0.2
 (Enter /lustre1/prg/gaussian/bin/G16_C01_Linda_AVX/g16/l308.exe)
 Leave Link  308 at Mon Jan 31 14:43:49 2022, MaxMem= 14763950080 cpu:               3.8 elap:               0.3
@@@@@@@@@@@@@@@@@@@@@@@@@@@@@@@@@@@@@@@@@@@@@@@@@@@@@@@@@@@
@    WARNING: REMOTE HOST IDENTIFICATION HAS CHANGED!     @
@@@@@@@@@@@@@@@@@@@@@@@@@@@@@@@@@@@@@@@@@@@@@@@@@@@@@@@@@@@
IT IS POSSIBLE THAT SOMEONE IS DOING SOMETHING NASTY!
Someone could be eavesdropping on you right now (man-in-the-middle attack)!
It is also possible that a host key has just been changed.
The fingerprint for the ECDSA key sent by the remote host is
SHA256:/AjTURhXCRUKek4UbVaKgMyDtvZS7NxutTthFLfcf4E.
Please contact your system administrator.
Add correct host key in /lustre2/home/toliste/.ssh/known_hosts to get rid of this message.
Offending ECDSA key in /lustre2/home/toliste/.ssh/known_hosts:39
Password authentication is disabled to avoid man-in-the-middle attacks.
Keyboard-interactive authentication is disabled to avoid man-in-the-middle attacks.
@@@@@@@@@@@@@@@@@@@@@@@@@@@@@@@@@@@@@@@@@@@@@@@@@@@@@@@@@@@
@    WARNING: REMOTE HOST IDENTIFICATION HAS CHANGED!     @
@@@@@@@@@@@@@@@@@@@@@@@@@@@@@@@@@@@@@@@@@@@@@@@@@@@@@@@@@@@
IT IS POSSIBLE THAT SOMEONE IS DOING SOMETHING NASTY!
Someone could be eavesdropping on you right now (man-in-the-middle attack)!
It is also possible that a host key has just been changed.
The fingerprint for the ECDSA key sent by the remote host is
SHA256:Xp1UsCYx4uiRP1N1RzocIuxHD305n3yJEKpIbz3QnvY.
Please contact your system administrator.
Add correct host key in /lustre2/home/toliste/.ssh/known_hosts to get rid of this message.
Offending ECDSA key in /lustre2/home/toliste/.ssh/known_hosts:40
Password authentication is disabled to avoid man-in-the-middle attacks.
Keyboard-interactive authentication is disabled to avoid man-in-the-middle attacks.
@@@@@@@@@@@@@@@@@@@@@@@@@@@@@@@@@@@@@@@@@@@@@@@@@@@@@@@@@@@
@    WARNING: REMOTE HOST IDENTIFICATION HAS CHANGED!     @
@@@@@@@@@@@@@@@@@@@@@@@@@@@@@@@@@@@@@@@@@@@@@@@@@@@@@@@@@@@
IT IS POSSIBLE THAT SOMEONE IS DOING SOMETHING NASTY!
Someone could be eavesdropping on you right now (man-in-the-middle attack)!
It is also possible that a host key has just been changed.
The fingerprint for the ECDSA key sent by the remote host is
SHA256:G9IhNqu6dDHLAoVyVolw86KnB/d2E/B6HhwdOU+4aFk.
Please contact your system administrator.
Add correct host key in /lustre2/home/toliste/.ssh/known_hosts to get rid of this message.
Offending ECDSA key in /lustre2/home/toliste/.ssh/known_hosts:42
Password authentication is disabled to avoid man-in-the-middle attacks.
Keyboard-interactive authentication is disabled to avoid man-in-the-middle attacks.
@@@@@@@@@@@@@@@@@@@@@@@@@@@@@@@@@@@@@@@@@@@@@@@@@@@@@@@@@@@
@    WARNING: REMOTE HOST IDENTIFICATION HAS CHANGED!     @
@@@@@@@@@@@@@@@@@@@@@@@@@@@@@@@@@@@@@@@@@@@@@@@@@@@@@@@@@@@
IT IS POSSIBLE THAT SOMEONE IS DOING SOMETHING NASTY!
Someone could be eavesdropping on you right now (man-in-the-middle attack)!
It is also possible that a host key has just been changed.
The fingerprint for the ECDSA key sent by the remote host is
SHA256:LZzp5fD0yVriDP8kFivFsmm13qlZphQ9A9RaIkkcbv4.
Please contact your system administrator.
Add correct host key in /lustre2/home/toliste/.ssh/known_hosts to get rid of this message.
Offending ECDSA key in /lustre2/home/toliste/.ssh/known_hosts:47
Password authentication is disabled to avoid man-in-the-middle attacks.
Keyboard-interactive authentication is disabled to avoid man-in-the-middle attacks.
@@@@@@@@@@@@@@@@@@@@@@@@@@@@@@@@@@@@@@@@@@@@@@@@@@@@@@@@@@@
@    WARNING: REMOTE HOST IDENTIFICATION HAS CHANGED!     @
@@@@@@@@@@@@@@@@@@@@@@@@@@@@@@@@@@@@@@@@@@@@@@@@@@@@@@@@@@@
IT IS POSSIBLE THAT SOMEONE IS DOING SOMETHING NASTY!
Someone could be eavesdropping on you right now (man-in-the-middle attack)!
It is also possible that a host key has just been changed.
The fingerprint for the ECDSA key sent by the remote host is
SHA256:PH2VYBecnanobPVUnYwJTS75p/RWDQbfxirf2OWPl/Q.
Please contact your system administrator.
Add correct host key in /lustre2/home/toliste/.ssh/known_hosts to get rid of this message.
Offending ECDSA key in /lustre2/home/toliste/.ssh/known_hosts:41
Password authentication is disabled to avoid man-in-the-middle attacks.
Keyboard-interactive authentication is disabled to avoid man-in-the-middle attacks.
@@@@@@@@@@@@@@@@@@@@@@@@@@@@@@@@@@@@@@@@@@@@@@@@@@@@@@@@@@@
@    WARNING: REMOTE HOST IDENTIFICATION HAS CHANGED!     @
@@@@@@@@@@@@@@@@@@@@@@@@@@@@@@@@@@@@@@@@@@@@@@@@@@@@@@@@@@@
IT IS POSSIBLE THAT SOMEONE IS DOING SOMETHING NASTY!
Someone could be eavesdropping on you right now (man-in-the-middle attack)!
It is also possible that a host key has just been changed.
The fingerprint for the ECDSA key sent by the remote host is
SHA256:sqT+iLt3MbAHOOAAL1axqp7MGkrLmPKTNyqQohVXPRI.
Please contact your system administrator.
Add correct host key in /lustre2/home/toliste/.ssh/known_hosts to get rid of this message.
Offending ECDSA key in /lustre2/home/toliste/.ssh/known_hosts:48
Password authentication is disabled to avoid man-in-the-middle attacks.
Keyboard-interactive authentication is disabled to avoid man-in-the-middle attacks.
@@@@@@@@@@@@@@@@@@@@@@@@@@@@@@@@@@@@@@@@@@@@@@@@@@@@@@@@@@@
@    WARNING: REMOTE HOST IDENTIFICATION HAS CHANGED!     @
@@@@@@@@@@@@@@@@@@@@@@@@@@@@@@@@@@@@@@@@@@@@@@@@@@@@@@@@@@@
IT IS POSSIBLE THAT SOMEONE IS DOING SOMETHING NASTY!
Someone could be eavesdropping on you right now (man-in-the-middle attack)!
It is also possible that a host key has just been changed.
The fingerprint for the ECDSA key sent by the remote host is
SHA256:JCp7y/EeKj0mq10qgTMr5gSwZRP/ZkNtbUyFVE8THRI.
Please contact your system administrator.
Add correct host key in /lustre2/home/toliste/.ssh/known_hosts to get rid of this message.
Offending ECDSA key in /lustre2/home/toliste/.ssh/known_hosts:49
Password authentication is disabled to avoid man-in-the-middle attacks.
Keyboard-interactive authentication is disabled to avoid man-in-the-middle attacks.
 (Enter /lustre1/prg/gaussian/bin/G16_C01_Linda_AVX/g16/linda-exe/l401.exel)
 ExpMin= 9.54D-02 ExpMax= 1.47D+04 ExpMxC= 5.03D+02 IAcc=3 IRadAn=         5 AccDes= 0.00D+00
 Harris functional with IExCor= 1009 and IRadAn=       5 diagonalized for initial guess.
 HarFok:  IExCor= 1009 AccDes= 0.00D+00 IRadAn=         5 IDoV= 1 UseB2=F ITyADJ=14
 ICtDFT=  3500011 ScaDFX=  1.000000  1.000000  1.000000  1.000000
 FoFCou: FMM=F IPFlag=           0 FMFlag=      100000 FMFlg1=           0
         NFxFlg=           0 DoJE=T BraDBF=F KetDBF=T FulRan=T
         wScrn=  0.000000 ICntrl=       500 IOpCl=  0 I1Cent=   200000004 NGrid=           0
         NMat0=    1 NMatS0=      1 NMatT0=    0 NMatD0=    1 NMtDS0=    0 NMtDT0=    0
 Symmetry not used in FoFCou.
 Harris En= -1373.26771014874    
 JPrj=0 DoOrth=F DoCkMO=F.
 Leave Link  401 at Mon Jan 31 14:43:54 2022, MaxMem= 14763950080 cpu:              64.5 elap:               4.2
@@@@@@@@@@@@@@@@@@@@@@@@@@@@@@@@@@@@@@@@@@@@@@@@@@@@@@@@@@@
@    WARNING: REMOTE HOST IDENTIFICATION HAS CHANGED!     @
@@@@@@@@@@@@@@@@@@@@@@@@@@@@@@@@@@@@@@@@@@@@@@@@@@@@@@@@@@@
IT IS POSSIBLE THAT SOMEONE IS DOING SOMETHING NASTY!
Someone could be eavesdropping on you right now (man-in-the-middle attack)!
It is also possible that a host key has just been changed.
The fingerprint for the ECDSA key sent by the remote host is
SHA256:Xp1UsCYx4uiRP1N1RzocIuxHD305n3yJEKpIbz3QnvY.
Please contact your system administrator.
Add correct host key in /lustre2/home/toliste/.ssh/known_hosts to get rid of this message.
Offending ECDSA key in /lustre2/home/toliste/.ssh/known_hosts:40
Password authentication is disabled to avoid man-in-the-middle attacks.
Keyboard-interactive authentication is disabled to avoid man-in-the-middle attacks.
@@@@@@@@@@@@@@@@@@@@@@@@@@@@@@@@@@@@@@@@@@@@@@@@@@@@@@@@@@@
@    WARNING: REMOTE HOST IDENTIFICATION HAS CHANGED!     @
@@@@@@@@@@@@@@@@@@@@@@@@@@@@@@@@@@@@@@@@@@@@@@@@@@@@@@@@@@@
IT IS POSSIBLE THAT SOMEONE IS DOING SOMETHING NASTY!
Someone could be eavesdropping on you right now (man-in-the-middle attack)!
It is also possible that a host key has just been changed.
The fingerprint for the ECDSA key sent by the remote host is
SHA256:G9IhNqu6dDHLAoVyVolw86KnB/d2E/B6HhwdOU+4aFk.
Please contact your system administrator.
Add correct host key in /lustre2/home/toliste/.ssh/known_hosts to get rid of this message.
Offending ECDSA key in /lustre2/home/toliste/.ssh/known_hosts:42
Password authentication is disabled to avoid man-in-the-middle attacks.
Keyboard-interactive authentication is disabled to avoid man-in-the-middle attacks.
@@@@@@@@@@@@@@@@@@@@@@@@@@@@@@@@@@@@@@@@@@@@@@@@@@@@@@@@@@@
@    WARNING: REMOTE HOST IDENTIFICATION HAS CHANGED!     @
@@@@@@@@@@@@@@@@@@@@@@@@@@@@@@@@@@@@@@@@@@@@@@@@@@@@@@@@@@@
IT IS POSSIBLE THAT SOMEONE IS DOING SOMETHING NASTY!
Someone could be eavesdropping on you right now (man-in-the-middle attack)!
It is also possible that a host key has just been changed.
The fingerprint for the ECDSA key sent by the remote host is
SHA256:LZzp5fD0yVriDP8kFivFsmm13qlZphQ9A9RaIkkcbv4.
Please contact your system administrator.
Add correct host key in /lustre2/home/toliste/.ssh/known_hosts to get rid of this message.
Offending ECDSA key in /lustre2/home/toliste/.ssh/known_hosts:47
Password authentication is disabled to avoid man-in-the-middle attacks.
Keyboard-interactive authentication is disabled to avoid man-in-the-middle attacks.
@@@@@@@@@@@@@@@@@@@@@@@@@@@@@@@@@@@@@@@@@@@@@@@@@@@@@@@@@@@
@    WARNING: REMOTE HOST IDENTIFICATION HAS CHANGED!     @
@@@@@@@@@@@@@@@@@@@@@@@@@@@@@@@@@@@@@@@@@@@@@@@@@@@@@@@@@@@
IT IS POSSIBLE THAT SOMEONE IS DOING SOMETHING NASTY!
Someone could be eavesdropping on you right now (man-in-the-middle attack)!
It is also possible that a host key has just been changed.
@@@@@@@@@@@@@@@@@@@@@@@@@@@@@@@@@@@@@@@@@@@@@@@@@@@@@@@@@@@
@@@@@@@@@@@@@@@@@@@@@@@@@@@@@@@@@@@@@@@@@@@@@@@@@@@@@@@@@@@
The fingerprint for the ECDSA key sent by the remote host is
SHA256:sqT+iLt3MbAHOOAAL1axqp7MGkrLmPKTNyqQohVXPRI.
@    WARNING: REMOTE HOST IDENTIFICATION HAS CHANGED!     @
Please contact your system administrator.
@    WARNING: REMOTE HOST IDENTIFICATION HAS CHANGED!     @
@@@@@@@@@@@@@@@@@@@@@@@@@@@@@@@@@@@@@@@@@@@@@@@@@@@@@@@@@@@
Add correct host key in /lustre2/home/toliste/.ssh/known_hosts to get rid of this message.
@@@@@@@@@@@@@@@@@@@@@@@@@@@@@@@@@@@@@@@@@@@@@@@@@@@@@@@@@@@
IT IS POSSIBLE THAT SOMEONE IS DOING SOMETHING NASTY!
Offending ECDSA key in /lustre2/home/toliste/.ssh/known_hosts:48
IT IS POSSIBLE THAT SOMEONE IS DOING SOMETHING NASTY!
Password authentication is disabled to avoid man-in-the-middle attacks.
Someone could be eavesdropping on you right now (man-in-the-middle attack)!
Someone could be eavesdropping on you right now (man-in-the-middle attack)!
Keyboard-interactive authentication is disabled to avoid man-in-the-middle attacks.
It is also possible that a host key has just been changed.
It is also possible that a host key has just been changed.
The fingerprint for the ECDSA key sent by the remote host is
SHA256:JCp7y/EeKj0mq10qgTMr5gSwZRP/ZkNtbUyFVE8THRI.
The fingerprint for the ECDSA key sent by the remote host is
SHA256:/AjTURhXCRUKek4UbVaKgMyDtvZS7NxutTthFLfcf4E.
Please contact your system administrator.
Please contact your system administrator.
Add correct host key in /lustre2/home/toliste/.ssh/known_hosts to get rid of this message.
Add correct host key in /lustre2/home/toliste/.ssh/known_hosts to get rid of this message.
Offending ECDSA key in /lustre2/home/toliste/.ssh/known_hosts:49
Offending ECDSA key in /lustre2/home/toliste/.ssh/known_hosts:39
Password authentication is disabled to avoid man-in-the-middle attacks.
Password authentication is disabled to avoid man-in-the-middle attacks.
Keyboard-interactive authentication is disabled to avoid man-in-the-middle attacks.
Keyboard-interactive authentication is disabled to avoid man-in-the-middle attacks.
@@@@@@@@@@@@@@@@@@@@@@@@@@@@@@@@@@@@@@@@@@@@@@@@@@@@@@@@@@@
@    WARNING: REMOTE HOST IDENTIFICATION HAS CHANGED!     @
@@@@@@@@@@@@@@@@@@@@@@@@@@@@@@@@@@@@@@@@@@@@@@@@@@@@@@@@@@@
IT IS POSSIBLE THAT SOMEONE IS DOING SOMETHING NASTY!
Someone could be eavesdropping on you right now (man-in-the-middle attack)!
It is also possible that a host key has just been changed.
The fingerprint for the ECDSA key sent by the remote host is
SHA256:PH2VYBecnanobPVUnYwJTS75p/RWDQbfxirf2OWPl/Q.
Please contact your system administrator.
Add correct host key in /lustre2/home/toliste/.ssh/known_hosts to get rid of this message.
Offending ECDSA key in /lustre2/home/toliste/.ssh/known_hosts:41
Password authentication is disabled to avoid man-in-the-middle attacks.
Keyboard-interactive authentication is disabled to avoid man-in-the-middle attacks.
 (Enter /lustre1/prg/gaussian/bin/G16_C01_Linda_AVX/g16/linda-exe/l502.exel)
 Two-electron integral symmetry not used.
 Closed shell SCF:
 Using DIIS extrapolation, IDIIS=  1040.
 NGot= 14763950080 LenX= 14763273835 LenY= 14762942635
 Requested convergence on RMS density matrix=1.00D-08 within 128 cycles.
 Requested convergence on MAX density matrix=1.00D-06.
 Requested convergence on             energy=1.00D-06.
 No special actions if energy rises.
 Fock matrices will be formed incrementally for  20 cycles.

 Cycle   1  Pass 1  IDiag  1:
 FoFJK:  IHMeth= 1 ICntrl=       0 DoSepK=F KAlg= 0 I1Cent=           0 FoldK=F
 IRaf= 690000000 NMat=       1 IRICut=       1 DoRegI=T DoRafI=F ISym2E= 0 IDoP0=0 IntGTp=1.
 FoFCou: FMM=F IPFlag=           0 FMFlag=      100000 FMFlg1=           0
         NFxFlg=           0 DoJE=F BraDBF=F KetDBF=F FulRan=T
         wScrn=  0.000000 ICntrl=         0 IOpCl=  0 I1Cent=           0 NGrid=           0
         NMat0=    1 NMatS0=      1 NMatT0=    0 NMatD0=    1 NMtDS0=    0 NMtDT0=    0
 Symmetry not used in FoFCou.
 Inv3:  Mode=1 IEnd=    43937787.
 Iteration    1 A*A^-1 deviation from unit magnitude is 5.55D-15 for   3796.
 Iteration    1 A*A^-1 deviation from orthogonality  is 3.50D-15 for   3820   1322.
 Iteration    1 A^-1*A deviation from unit magnitude is 5.55D-15 for   3803.
 Iteration    1 A^-1*A deviation from orthogonality  is 2.89D-15 for   2645   1137.
 E= -1373.61452561075    
 DIIS: error= 4.36D-02 at cycle   1 NSaved=   1.
 NSaved= 1 IEnMin= 1 EnMin= -1373.61452561075     IErMin= 1 ErrMin= 4.36D-02
 ErrMax= 4.36D-02  0.00D+00 EMaxC= 1.00D-01 BMatC= 5.21D-01 BMatP= 5.21D-01
 IDIUse=3 WtCom= 5.64D-01 WtEn= 4.36D-01
 Coeff-Com:  0.100D+01
 Coeff-En:   0.100D+01
 Coeff:      0.100D+01
 Gap=     0.124 Goal=   None    Shift=    0.000
 GapD=    0.124 DampG=1.000 DampE=0.500 DampFc=0.5000 IDamp=-1.
 Damping current iteration by 5.00D-01
 RMSDP=3.25D-03 MaxDP=1.00D-01              OVMax= 1.60D-01

 Cycle   2  Pass 1  IDiag  1:
 RMSU=  1.52D-03    CP:  9.62D-01
 E= -1373.88837405228     Delta-E=       -0.273848441538 Rises=F Damp=T
 DIIS: error= 8.68D-03 at cycle   2 NSaved=   2.
 NSaved= 2 IEnMin= 2 EnMin= -1373.88837405228     IErMin= 2 ErrMin= 8.68D-03
 ErrMax= 8.68D-03  0.00D+00 EMaxC= 1.00D-01 BMatC= 4.53D-02 BMatP= 5.21D-01
 IDIUse=3 WtCom= 9.13D-01 WtEn= 8.68D-02
 Coeff-Com: -0.133D+00 0.113D+01
 Coeff-En:   0.000D+00 0.100D+01
 Coeff:     -0.121D+00 0.112D+01
 Gap=     0.158 Goal=   None    Shift=    0.000
 RMSDP=1.15D-03 MaxDP=6.76D-02 DE=-2.74D-01 OVMax= 9.96D-02

 Cycle   3  Pass 1  IDiag  1:
 RMSU=  8.26D-04    CP:  9.35D-01  1.45D+00
 E= -1374.12805496594     Delta-E=       -0.239680913652 Rises=F Damp=F
 DIIS: error= 5.45D-03 at cycle   3 NSaved=   3.
 NSaved= 3 IEnMin= 3 EnMin= -1374.12805496594     IErMin= 3 ErrMin= 5.45D-03
 ErrMax= 5.45D-03  0.00D+00 EMaxC= 1.00D-01 BMatC= 2.05D-02 BMatP= 4.53D-02
 IDIUse=3 WtCom= 9.46D-01 WtEn= 5.45D-02
 Coeff-Com: -0.116D+00 0.486D+00 0.630D+00
 Coeff-En:   0.000D+00 0.000D+00 0.100D+01
 Coeff:     -0.110D+00 0.460D+00 0.650D+00
 Gap=     0.133 Goal=   None    Shift=    0.000
 RMSDP=3.61D-04 MaxDP=2.77D-02 DE=-2.40D-01 OVMax= 5.39D-02

 Cycle   4  Pass 1  IDiag  1:
 RMSU=  2.57D-04    CP:  9.37D-01  1.48D+00  6.98D-01
 E= -1374.14406681531     Delta-E=       -0.016011849379 Rises=F Damp=F
 DIIS: error= 2.57D-03 at cycle   4 NSaved=   4.
 NSaved= 4 IEnMin= 4 EnMin= -1374.14406681531     IErMin= 4 ErrMin= 2.57D-03
 ErrMax= 2.57D-03  0.00D+00 EMaxC= 1.00D-01 BMatC= 4.48D-03 BMatP= 2.05D-02
 IDIUse=3 WtCom= 9.74D-01 WtEn= 2.57D-02
 Coeff-Com: -0.394D-01 0.111D+00 0.352D+00 0.576D+00
 Coeff-En:   0.000D+00 0.000D+00 0.173D+00 0.827D+00
 Coeff:     -0.384D-01 0.108D+00 0.348D+00 0.583D+00
 Gap=     0.136 Goal=   None    Shift=    0.000
 RMSDP=1.31D-04 MaxDP=9.96D-03 DE=-1.60D-02 OVMax= 2.05D-02

 Cycle   5  Pass 1  IDiag  1:
 RMSU=  6.20D-05    CP:  9.36D-01  1.48D+00  7.88D-01  6.64D-01
 E= -1374.14846090802     Delta-E=       -0.004394092704 Rises=F Damp=F
 DIIS: error= 3.47D-04 at cycle   5 NSaved=   5.
 NSaved= 5 IEnMin= 5 EnMin= -1374.14846090802     IErMin= 5 ErrMin= 3.47D-04
 ErrMax= 3.47D-04  0.00D+00 EMaxC= 1.00D-01 BMatC= 1.89D-04 BMatP= 4.48D-03
 IDIUse=3 WtCom= 9.97D-01 WtEn= 3.47D-03
 Coeff-Com: -0.884D-02 0.142D-01 0.108D+00 0.257D+00 0.629D+00
 Coeff-En:   0.000D+00 0.000D+00 0.000D+00 0.000D+00 0.100D+01
 Coeff:     -0.881D-02 0.141D-01 0.108D+00 0.256D+00 0.631D+00
 Gap=     0.136 Goal=   None    Shift=    0.000
 RMSDP=2.94D-05 MaxDP=1.69D-03 DE=-4.39D-03 OVMax= 3.21D-03

 Cycle   6  Pass 1  IDiag  1:
 RMSU=  2.11D-05    CP:  9.36D-01  1.48D+00  7.91D-01  7.02D-01  7.28D-01
 E= -1374.14864775923     Delta-E=       -0.000186851212 Rises=F Damp=F
 DIIS: error= 1.22D-04 at cycle   6 NSaved=   6.
 NSaved= 6 IEnMin= 6 EnMin= -1374.14864775923     IErMin= 6 ErrMin= 1.22D-04
 ErrMax= 1.22D-04  0.00D+00 EMaxC= 1.00D-01 BMatC= 1.12D-05 BMatP= 1.89D-04
 IDIUse=3 WtCom= 9.99D-01 WtEn= 1.22D-03
 Coeff-Com: -0.121D-02-0.485D-03 0.207D-01 0.631D-01 0.250D+00 0.668D+00
 Coeff-En:   0.000D+00 0.000D+00 0.000D+00 0.000D+00 0.000D+00 0.100D+01
 Coeff:     -0.121D-02-0.484D-03 0.207D-01 0.630D-01 0.250D+00 0.668D+00
 Gap=     0.136 Goal=   None    Shift=    0.000
 RMSDP=8.61D-06 MaxDP=3.70D-04 DE=-1.87D-04 OVMax= 1.87D-03

 Cycle   7  Pass 1  IDiag  1:
 RMSU=  6.66D-06    CP:  9.36D-01  1.48D+00  7.93D-01  7.06D-01  8.07D-01
                    CP:  9.09D-01
 E= -1374.14866169495     Delta-E=       -0.000013935722 Rises=F Damp=F
 DIIS: error= 3.09D-05 at cycle   7 NSaved=   7.
 NSaved= 7 IEnMin= 7 EnMin= -1374.14866169495     IErMin= 7 ErrMin= 3.09D-05
 ErrMax= 3.09D-05  0.00D+00 EMaxC= 1.00D-01 BMatC= 1.04D-06 BMatP= 1.12D-05
 IDIUse=1 WtCom= 1.00D+00 WtEn= 0.00D+00
 Coeff-Com:  0.743D-03-0.208D-02-0.648D-02-0.105D-01 0.188D-02 0.202D+00
 Coeff-Com:  0.814D+00
 Coeff:      0.743D-03-0.208D-02-0.648D-02-0.105D-01 0.188D-02 0.202D+00
 Coeff:      0.814D+00
 Gap=     0.136 Goal=   None    Shift=    0.000
 RMSDP=3.59D-06 MaxDP=1.15D-04 DE=-1.39D-05 OVMax= 6.21D-04

 Cycle   8  Pass 1  IDiag  1:
 RMSU=  2.28D-06    CP:  9.36D-01  1.49D+00  7.93D-01  7.10D-01  8.23D-01
                    CP:  1.02D+00  1.05D+00
 E= -1374.14866341956     Delta-E=       -0.000001724603 Rises=F Damp=F
 DIIS: error= 1.32D-05 at cycle   8 NSaved=   8.
 NSaved= 8 IEnMin= 8 EnMin= -1374.14866341956     IErMin= 8 ErrMin= 1.32D-05
 ErrMax= 1.32D-05  0.00D+00 EMaxC= 1.00D-01 BMatC= 2.32D-07 BMatP= 1.04D-06
 IDIUse=1 WtCom= 1.00D+00 WtEn= 0.00D+00
 Coeff-Com:  0.583D-03-0.933D-03-0.657D-02-0.157D-01-0.420D-01-0.113D-01
 Coeff-Com:  0.379D+00 0.697D+00
 Coeff:      0.583D-03-0.933D-03-0.657D-02-0.157D-01-0.420D-01-0.113D-01
 Coeff:      0.379D+00 0.697D+00
 Gap=     0.136 Goal=   None    Shift=    0.000
 RMSDP=1.58D-06 MaxDP=8.71D-05 DE=-1.72D-06 OVMax= 3.98D-04

 Cycle   9  Pass 1  IDiag  1:
 RMSU=  7.81D-07    CP:  9.36D-01  1.49D+00  7.93D-01  7.11D-01  8.32D-01
                    CP:  1.05D+00  1.17D+00  8.39D-01
 E= -1374.14866379494     Delta-E=       -0.000000375383 Rises=F Damp=F
 DIIS: error= 2.93D-06 at cycle   9 NSaved=   9.
 NSaved= 9 IEnMin= 9 EnMin= -1374.14866379494     IErMin= 9 ErrMin= 2.93D-06
 ErrMax= 2.93D-06  0.00D+00 EMaxC= 1.00D-01 BMatC= 9.91D-09 BMatP= 2.32D-07
 IDIUse=1 WtCom= 1.00D+00 WtEn= 0.00D+00
 Coeff-Com:  0.811D-04-0.736D-04-0.919D-03-0.254D-02-0.932D-02-0.130D-01
 Coeff-Com:  0.179D-01 0.166D+00 0.842D+00
 Coeff:      0.811D-04-0.736D-04-0.919D-03-0.254D-02-0.932D-02-0.130D-01
 Coeff:      0.179D-01 0.166D+00 0.842D+00
 Gap=     0.136 Goal=   None    Shift=    0.000
 RMSDP=4.33D-07 MaxDP=1.47D-05 DE=-3.75D-07 OVMax= 9.93D-05

 Cycle  10  Pass 1  IDiag  1:
 RMSU=  2.54D-07    CP:  9.36D-01  1.49D+00  7.93D-01  7.12D-01  8.33D-01
                    CP:  1.06D+00  1.20D+00  9.27D-01  1.07D+00
 E= -1374.14866381508     Delta-E=       -0.000000020140 Rises=F Damp=F
 DIIS: error= 1.29D-06 at cycle  10 NSaved=  10.
 NSaved=10 IEnMin=10 EnMin= -1374.14866381508     IErMin=10 ErrMin= 1.29D-06
 ErrMax= 1.29D-06  0.00D+00 EMaxC= 1.00D-01 BMatC= 2.12D-09 BMatP= 9.91D-09
 IDIUse=1 WtCom= 1.00D+00 WtEn= 0.00D+00
 Coeff-Com: -0.378D-04 0.830D-04 0.452D-03 0.975D-03 0.135D-02-0.422D-02
 Coeff-Com: -0.458D-01-0.169D-01 0.346D+00 0.718D+00
 Coeff:     -0.378D-04 0.830D-04 0.452D-03 0.975D-03 0.135D-02-0.422D-02
 Coeff:     -0.458D-01-0.169D-01 0.346D+00 0.718D+00
 Gap=     0.136 Goal=   None    Shift=    0.000
 RMSDP=1.55D-07 MaxDP=6.69D-06 DE=-2.01D-08 OVMax= 4.11D-05

 Cycle  11  Pass 1  IDiag  1:
 RMSU=  8.76D-08    CP:  9.36D-01  1.49D+00  7.93D-01  7.12D-01  8.33D-01
                    CP:  1.07D+00  1.20D+00  9.50D-01  1.18D+00  9.68D-01
 E= -1374.14866381840     Delta-E=       -0.000000003323 Rises=F Damp=F
 DIIS: error= 7.33D-07 at cycle  11 NSaved=  11.
 NSaved=11 IEnMin=11 EnMin= -1374.14866381840     IErMin=11 ErrMin= 7.33D-07
 ErrMax= 7.33D-07  0.00D+00 EMaxC= 1.00D-01 BMatC= 3.28D-10 BMatP= 2.12D-09
 IDIUse=1 WtCom= 1.00D+00 WtEn= 0.00D+00
 Coeff-Com: -0.263D-04 0.459D-04 0.307D-03 0.738D-03 0.166D-02-0.323D-03
 Coeff-Com: -0.235D-01-0.252D-01 0.513D-01 0.333D+00 0.662D+00
 Coeff:     -0.263D-04 0.459D-04 0.307D-03 0.738D-03 0.166D-02-0.323D-03
 Coeff:     -0.235D-01-0.252D-01 0.513D-01 0.333D+00 0.662D+00
 Gap=     0.136 Goal=   None    Shift=    0.000
 RMSDP=5.44D-08 MaxDP=2.20D-06 DE=-3.32D-09 OVMax= 8.78D-06

 Cycle  12  Pass 1  IDiag  1:
 RMSU=  3.25D-08    CP:  9.36D-01  1.49D+00  7.93D-01  7.12D-01  8.33D-01
                    CP:  1.07D+00  1.21D+00  9.56D-01  1.21D+00  1.07D+00
                    CP:  9.30D-01
 E= -1374.14866381879     Delta-E=       -0.000000000392 Rises=F Damp=F
 DIIS: error= 1.58D-07 at cycle  12 NSaved=  12.
 NSaved=12 IEnMin=12 EnMin= -1374.14866381879     IErMin=12 ErrMin= 1.58D-07
 ErrMax= 1.58D-07  0.00D+00 EMaxC= 1.00D-01 BMatC= 2.92D-11 BMatP= 3.28D-10
 IDIUse=1 WtCom= 1.00D+00 WtEn= 0.00D+00
 Coeff-Com: -0.486D-05 0.650D-05 0.596D-04 0.159D-03 0.444D-03 0.443D-03
 Coeff-Com: -0.334D-02-0.496D-02-0.214D-01 0.596D-01 0.250D+00 0.719D+00
 Coeff:     -0.486D-05 0.650D-05 0.596D-04 0.159D-03 0.444D-03 0.443D-03
 Coeff:     -0.334D-02-0.496D-02-0.214D-01 0.596D-01 0.250D+00 0.719D+00
 Gap=     0.136 Goal=   None    Shift=    0.000
 RMSDP=1.66D-08 MaxDP=1.13D-06 DE=-3.92D-10 OVMax= 4.79D-06

 Cycle  13  Pass 1  IDiag  1:
 RMSU=  1.17D-08    CP:  9.36D-01  1.49D+00  7.93D-01  7.12D-01  8.33D-01
                    CP:  1.07D+00  1.21D+00  9.57D-01  1.22D+00  1.09D+00
                    CP:  1.02D+00  9.20D-01
 E= -1374.14866381884     Delta-E=       -0.000000000050 Rises=F Damp=F
 DIIS: error= 5.92D-08 at cycle  13 NSaved=  13.
 NSaved=13 IEnMin=13 EnMin= -1374.14866381884     IErMin=13 ErrMin= 5.92D-08
 ErrMax= 5.92D-08  0.00D+00 EMaxC= 1.00D-01 BMatC= 5.25D-12 BMatP= 2.92D-11
 IDIUse=1 WtCom= 1.00D+00 WtEn= 0.00D+00
 Coeff-Com:  0.190D-05-0.389D-05-0.210D-04-0.460D-04-0.685D-04 0.181D-03
 Coeff-Com:  0.164D-02 0.197D-02-0.176D-01-0.220D-01-0.310D-01 0.246D+00
 Coeff-Com:  0.821D+00
 Coeff:      0.190D-05-0.389D-05-0.210D-04-0.460D-04-0.685D-04 0.181D-03
 Coeff:      0.164D-02 0.197D-02-0.176D-01-0.220D-01-0.310D-01 0.246D+00
 Coeff:      0.821D+00
 Gap=     0.136 Goal=   None    Shift=    0.000
 RMSDP=9.50D-09 MaxDP=2.88D-07 DE=-5.00D-11 OVMax= 1.77D-06

 Error on total polarization charges =  0.01600
 SCF Done:  E(RM062X) =  -1374.14866382     A.U. after   13 cycles
            NFock= 13  Conv=0.95D-08     -V/T= 2.0063
 KE= 1.365536994896D+03 PE=-8.909863410701D+03 EE= 3.315393691636D+03
 Leave Link  502 at Mon Jan 31 14:45:46 2022, MaxMem= 14763950080 cpu:            1666.3 elap:             110.0
 (Enter /lustre1/prg/gaussian/bin/G16_C01_Linda_AVX/g16/l801.exe)
 DoSCS=F DFT=T ScalE2(SS,OS)=  1.000000  1.000000
 ExpMin= 9.54D-02 ExpMax= 1.47D+04 ExpMxC= 5.03D+02 IAcc=3 IRadAn=         5 AccDes= 0.00D+00
 HarFok:  IExCor=  205 AccDes= 0.00D+00 IRadAn=         5 IDoV=-2 UseB2=F ITyADJ=14
 ICtDFT= 12500011 ScaDFX=  1.000000  1.000000  1.000000  1.000000
 GSVD:  LWork=       -1280 too small for GESVD, short by        5600 words or        5600 for optimal perf.
 Largest valence mixing into a core orbital is  7.94D-05
 Largest core mixing into a valence orbital is  5.09D-05
 Range of M.O.s used for correlation:    33   543
 NBasis=   543 NAE=   109 NBE=   109 NFC=    32 NFV=     0
 NROrb=    511 NOA=    77 NOB=    77 NVA=   434 NVB=   434

 **** Warning!!: The largest alpha MO coefficient is  0.12217058D+02

 Leave Link  801 at Mon Jan 31 14:45:47 2022, MaxMem= 14763950080 cpu:               4.5 elap:               0.3
@@@@@@@@@@@@@@@@@@@@@@@@@@@@@@@@@@@@@@@@@@@@@@@@@@@@@@@@@@@
@    WARNING: REMOTE HOST IDENTIFICATION HAS CHANGED!     @
@@@@@@@@@@@@@@@@@@@@@@@@@@@@@@@@@@@@@@@@@@@@@@@@@@@@@@@@@@@
IT IS POSSIBLE THAT SOMEONE IS DOING SOMETHING NASTY!
Someone could be eavesdropping on you right now (man-in-the-middle attack)!
It is also possible that a host key has just been changed.
The fingerprint for the ECDSA key sent by the remote host is
SHA256:JCp7y/EeKj0mq10qgTMr5gSwZRP/ZkNtbUyFVE8THRI.
[...]
 Alpha virt. eigenvalues --    1.11210   1.11928   1.12416   1.12653   1.13135
 Alpha virt. eigenvalues --    1.13586   1.14011   1.14967   1.16078   1.16975
 Alpha virt. eigenvalues --    1.18324   1.19844   1.23092   1.25703   1.26106
 Alpha virt. eigenvalues --    1.30312   1.30934   1.31187   1.32564   1.32862
 Alpha virt. eigenvalues --    1.33001   1.33800   1.34407   1.34515   1.35025
 Alpha virt. eigenvalues --    1.35962   1.37068   1.37225   1.37956   1.39356
 Alpha virt. eigenvalues --    1.40082   1.40134   1.41458   1.43055   1.43438
 Alpha virt. eigenvalues --    1.43481   1.45449   1.45478   1.46667   1.48679
 Alpha virt. eigenvalues --    1.49091   1.49871   1.50526   1.50594   1.51027
 Alpha virt. eigenvalues --    1.51794   1.51886   1.52664   1.52713   1.53283
 Alpha virt. eigenvalues --    1.53891   1.54614   1.54735   1.55579   1.55632
 Alpha virt. eigenvalues --    1.56295   1.56674   1.57355   1.58672   1.59697
 Alpha virt. eigenvalues --    1.59724   1.60863   1.61686   1.62139   1.63474
 Alpha virt. eigenvalues --    1.63890   1.63969   1.64513   1.64612   1.64687
 Alpha virt. eigenvalues --    1.64724   1.65064   1.65668   1.66109   1.66152
 Alpha virt. eigenvalues --    1.66533   1.66974   1.67357   1.67799   1.68219
 Alpha virt. eigenvalues --    1.69047   1.69642   1.69823   1.70243   1.70792
 Alpha virt. eigenvalues --    1.71050   1.71340   1.72076   1.72335   1.73842
 Alpha virt. eigenvalues --    1.74562   1.74850   1.75574   1.75988   1.76893
 Alpha virt. eigenvalues --    1.77039   1.77464   1.78087   1.78538   1.78944
 Alpha virt. eigenvalues --    1.79295   1.80315   1.80618   1.81046   1.81564
 Alpha virt. eigenvalues --    1.82142   1.83209   1.83887   1.83901   1.84734
 Alpha virt. eigenvalues --    1.84865   1.85091   1.86155   1.86349   1.87709
 Alpha virt. eigenvalues --    1.88146   1.88262   1.88628   1.88704   1.89087
 Alpha virt. eigenvalues --    1.89326   1.89495   1.90007   1.90420   1.90970
 Alpha virt. eigenvalues --    1.92381   1.93085   1.93346   1.93905   1.94179
 Alpha virt. eigenvalues --    1.95174   1.97055   1.97753   1.98322   1.98381
 Alpha virt. eigenvalues --    1.99946   2.00399   2.00407   2.01372   2.02695
 Alpha virt. eigenvalues --    2.02987   2.03452   2.03681   2.03711   2.04428
 Alpha virt. eigenvalues --    2.04724   2.06466   2.08029   2.09790   2.10620
 Alpha virt. eigenvalues --    2.11871   2.14147   2.14533   2.15139   2.16571
 Alpha virt. eigenvalues --    2.17023   2.17782   2.19432   2.21453   2.22969
 Alpha virt. eigenvalues --    2.23018   2.24411   2.24577   2.26636   2.30032
 Alpha virt. eigenvalues --    2.31030   2.31610   2.32058   2.32102   2.33760
 Alpha virt. eigenvalues --    2.35278   2.35442   2.38705   2.39592   2.40086
 Alpha virt. eigenvalues --    2.40133   2.40736   2.41255   2.43538   2.43742
 Alpha virt. eigenvalues --    2.44506   2.45854   2.46392   2.46740   2.46915
 Alpha virt. eigenvalues --    2.47755   2.48611   2.49634   2.49958   2.51312
 Alpha virt. eigenvalues --    2.52293   2.53511   2.55105   2.58294   2.63150
 Alpha virt. eigenvalues --    2.65340   2.66544   2.66843   2.68756   2.70208
 Alpha virt. eigenvalues --    2.71847   2.72106   2.72910   2.73533   2.73575
 Alpha virt. eigenvalues --    2.74184   2.77576   2.83131   2.83524   2.85270
 Alpha virt. eigenvalues --    2.88221   2.88878   2.89534   2.93449   2.93639
 Alpha virt. eigenvalues --    2.97121   2.98864   3.10003   3.11633   3.14886
 Alpha virt. eigenvalues --    3.15386   3.56006   3.59596   3.59667   3.68207
 Alpha virt. eigenvalues --    3.68401   3.71718   3.74356   3.76565   3.89036
 Alpha virt. eigenvalues --    4.03976   4.07283   4.11907   4.14141
          Condensed to atoms (all electrons):
 Mulliken charges:
               1
     1  N   -0.167776
     2  C    0.099888
     3  C   -0.039198
     4  C   -0.093834
     5  C    0.112097
     6  C   -0.017571
     7  C    0.013093
     8  C    0.031797
     9  C    0.013088
    10  C   -0.017604
    11  C    0.005998
    12  C    0.065356
    13  C    0.112194
    14  C   -0.094052
    15  C   -0.039264
    16  C    0.099803
    17  N   -0.167806
    18  F   -0.232512
    19  B    0.190979
    20  F   -0.228961
    21  H    0.056940
    22  H    0.035997
    23  H    0.030035
    24  H    0.032558
    25  H    0.036779
    26  H    0.032569
    27  H    0.030127
    28  H    0.036055
    29  H    0.056926
    30  C    0.017385
    31  C   -0.045693
    32  C   -0.047593
    33  C    0.009379
    34  C    0.008706
    35  C   -0.010192
    36  H    0.009527
    37  H    0.009725
    38  H    0.017709
    39  H    0.018007
    40  H    0.016216
    41  C    0.017559
    42  C   -0.047797
    43  C   -0.045828
    44  C    0.008783
    45  C    0.009417
    46  C   -0.010171
    47  H    0.009729
    48  H    0.009534
    49  H    0.017994
    50  H    0.017699
    51  H    0.016204
 Sum of Mulliken charges =  -0.00000
 Mulliken charges with hydrogens summed into heavy atoms:
               1
     1  N   -0.167776
     2  C    0.156828
     3  C   -0.039198
     4  C   -0.057837
     5  C    0.112097
     6  C    0.012464
     7  C    0.045651
     8  C    0.068576
     9  C    0.045658
    10  C    0.012523
    11  C    0.005998
    12  C    0.065356
    13  C    0.112194
    14  C   -0.057997
    15  C   -0.039264
    16  C    0.156730
    17  N   -0.167806
    18  F   -0.232512
    19  B    0.190979
    20  F   -0.228961
    30  C    0.017385
    31  C   -0.036166
    32  C   -0.037868
    33  C    0.027089
    34  C    0.026713
    35  C    0.006024
    41  C    0.017559
    42  C   -0.038068
    43  C   -0.036295
    44  C    0.026778
    45  C    0.027115
    46  C    0.006033
 Electronic spatial extent (au):  <R**2>=         178852.0063
 Charge=              0.0000 electrons
 Dipole moment (field-independent basis, Debye):
    X=              0.0720    Y=              6.7624    Z=              4.5049  Tot=              8.1259
 Quadrupole moment (field-independent basis, Debye-Ang):
   XX=           -152.2219   YY=           -256.6452   ZZ=           -197.7124
   XY=             78.9726   XZ=             52.3831   YZ=            -32.8643
 Traceless Quadrupole moment (field-independent basis, Debye-Ang):
   XX=             49.9713   YY=            -54.4521   ZZ=              4.4808
   XY=             78.9726   XZ=             52.3831   YZ=            -32.8643
 Octapole moment (field-independent basis, Debye-Ang**2):
  XXX=          -5396.0647  YYY=           5128.2355  ZZZ=           -206.0042  XYY=          -3013.1075
  XXY=           2165.8166  XXZ=            628.4831  XZZ=          -2327.0268  YZZ=           1655.9966
  YYZ=            179.4242  XYZ=           -381.4116
 Hexadecapole moment (field-independent basis, Debye-Ang**3):
 XXXX=        -142142.7613 YYYY=         -84150.2859 ZZZZ=          -1671.9665 XXXY=          54619.8067
 XXXZ=           7845.1319 YYYX=          60259.7767 YYYZ=           -165.7862 ZZZX=          -2329.2242
 ZZZY=           1760.9626 XXYY=         -48615.1317 XXZZ=         -30376.1243 YYZZ=         -15171.6459
 XXYZ=          -4507.6200 YYXZ=           2092.1925 ZZXY=          19489.9217
 N-N= 2.852702071447D+03 E-N=-8.905644501705D+03  KE= 1.365493450333D+03

 **********************************************************************

            Population analysis using the CI Rho(1) Density.

 **********************************************************************

          Condensed to atoms (all electrons):
 Mulliken charges:
               1
     1  N   -0.155452
     2  C    0.121114
     3  C    0.046457
     4  C   -0.168846
     5  C    0.230210
     6  C   -0.072192
     7  C    0.011455
     8  C   -0.026170
     9  C    0.011452
    10  C   -0.072191
    11  C   -0.002442
    12  C   -0.228775
    13  C    0.230549
    14  C   -0.169011
    15  C    0.046576
    16  C    0.121296
    17  N   -0.155433
    18  F   -0.232902
    19  B    0.187168
    20  F   -0.228806
    21  H    0.056723
    22  H    0.035109
    23  H    0.027848
    24  H    0.032532
    25  H    0.036283
    26  H    0.032542
    27  H    0.027946
    28  H    0.035174
    29  H    0.056710
    30  C    0.030249
    31  C   -0.027975
    32  C   -0.026796
    33  C    0.011864
    34  C    0.009481
    35  C    0.014405
    36  H    0.009433
    37  H    0.009684
    38  H    0.017707
    39  H    0.018004
    40  H    0.016347
    41  C    0.030480
    42  C   -0.026918
    43  C   -0.028043
    44  C    0.009552
    45  C    0.011910
    46  C    0.014531
    47  H    0.009696
    48  H    0.009444
    49  H    0.017990
    50  H    0.017697
    51  H    0.016336
 Sum of Mulliken charges =  -0.00000
 Mulliken charges with hydrogens summed into heavy atoms:
               1
     1  N   -0.155452
     2  C    0.177837
     3  C    0.046457
     4  C   -0.133737
     5  C    0.230210
     6  C   -0.044344
     7  C    0.043987
     8  C    0.010113
     9  C    0.043994
    10  C   -0.044245
    11  C   -0.002442
    12  C   -0.228775
    13  C    0.230549
    14  C   -0.133837
    15  C    0.046576
    16  C    0.178006
    17  N   -0.155433
    18  F   -0.232902
    19  B    0.187168
    20  F   -0.228806
    30  C    0.030249
    31  C   -0.018542
    32  C   -0.017112
    33  C    0.029571
    34  C    0.027485
    35  C    0.030752
    41  C    0.030480
    42  C   -0.017221
    43  C   -0.018599
    44  C    0.027542
    45  C    0.029607
    46  C    0.030867
 Electronic spatial extent (au):  <R**2>=         178751.1140
 Charge=             -0.0000 electrons
 Dipole moment (field-independent basis, Debye):
    X=              0.0529    Y=             -0.3128    Z=              5.0793  Tot=              5.0892
 Quadrupole moment (field-independent basis, Debye-Ang):
   XX=           -119.9228   YY=           -154.1807   ZZ=           -196.7724
   XY=             -4.0934   XZ=             58.7146   YZ=            -40.2349
 Traceless Quadrupole moment (field-independent basis, Debye-Ang):
   XX=             37.0358   YY=              2.7779   ZZ=            -39.8138
   XY=             -4.0934   XZ=             58.7146   YZ=            -40.2349
 Octapole moment (field-independent basis, Debye-Ang**2):
  XXX=          -4248.5220  YYY=           3957.4722  ZZZ=           -202.8335  XYY=          -1809.0489
  XXY=            869.4576  XXZ=            735.0399  XZZ=          -2316.9186  YZZ=           1641.8540
  YYZ=            261.8221  XYZ=           -464.0406
 Hexadecapole moment (field-independent basis, Debye-Ang**3):
 XXXX=        -113926.8474 YYYY=         -71811.2582 ZZZZ=          -1664.7598 XXXY=          31838.1106
 XXXZ=           9898.2193 YYYX=          46496.4588 YYYZ=          -1043.9071 ZZZX=          -2294.7934
 ZZZY=           1726.8379 XXYY=         -31332.0804 XXZZ=         -30193.1215 YYZZ=         -15008.3850
 XXYZ=          -5796.3872 YYXZ=           3022.3269 ZZXY=          19332.7974
 N-N= 2.852702071447D+03 E-N=-8.905777218903D+03  KE= 1.365532479738D+03

 **********************************************************************

            Population analysis using the CI Density.

 **********************************************************************

          Condensed to atoms (all electrons):
 Mulliken charges:
               1
     1  N   -0.166135
     2  C    0.110367
     3  C   -0.019636
     4  C   -0.108178
     5  C    0.136538
     6  C   -0.049193
     7  C    0.008531
     8  C   -0.001532
     9  C    0.008532
    10  C   -0.049181
    11  C    0.022005
    12  C   -0.000030
    13  C    0.136719
    14  C   -0.108343
    15  C   -0.019678
    16  C    0.110437
    17  N   -0.166162
    18  F   -0.231304
    19  B    0.191695
    20  F   -0.227351
    21  H    0.060267
    22  H    0.030082
    23  H    0.012025
    24  H    0.020466
    25  H    0.019893
    26  H    0.020477
    27  H    0.012118
    28  H    0.030185
    29  H    0.060306
    30  C    0.013286
    31  C   -0.032593
    32  C   -0.033589
    33  C    0.012215
    34  C    0.010550
    35  C    0.003632
    36  H    0.016846
    37  H    0.016953
    38  H    0.023271
    39  H    0.023408
    40  H    0.023909
    41  C    0.013467
    42  C   -0.033740
    43  C   -0.032674
    44  C    0.010636
    45  C    0.012267
    46  C    0.003721
    47  H    0.016998
    48  H    0.016886
    49  H    0.023416
    50  H    0.023283
    51  H    0.023930
 Sum of Mulliken charges =  -0.00000
 Mulliken charges with hydrogens summed into heavy atoms:
               1
     1  N   -0.166135
     2  C    0.170634
     3  C   -0.019636
     4  C   -0.078096
     5  C    0.136538
     6  C   -0.037169
     7  C    0.028997
     8  C    0.018361
     9  C    0.029009
    10  C   -0.037063
    11  C    0.022005
    12  C   -0.000030
    13  C    0.136719
    14  C   -0.078157
    15  C   -0.019678
    16  C    0.170743
    17  N   -0.166162
    18  F   -0.231304
    19  B    0.191695
    20  F   -0.227351
    30  C    0.013286
    31  C   -0.015747
    32  C   -0.016636
    33  C    0.035486
    34  C    0.033958
    35  C    0.027541
    41  C    0.013467
    42  C   -0.016743
    43  C   -0.015788
    44  C    0.034053
    45  C    0.035550
    46  C    0.027651
 Electronic spatial extent (au):  <R**2>=         178773.5979
 Charge=              0.0000 electrons
 Dipole moment (field-independent basis, Debye):
    X=              0.0585    Y=              1.3439    Z=              5.1749  Tot=              5.3469
 Quadrupole moment (field-independent basis, Debye-Ang):
   XX=           -123.7448   YY=           -181.1744   ZZ=           -196.1983
   XY=             15.3450   XZ=             59.8958   YZ=            -40.4639
 Traceless Quadrupole moment (field-independent basis, Debye-Ang):
   XX=             43.2944   YY=            -14.1353   ZZ=            -29.1591
   XY=             15.3450   XZ=             59.8958   YZ=            -40.4639
 Octapole moment (field-independent basis, Debye-Ang**2):
  XXX=          -4385.4083  YYY=           4270.2941  ZZZ=           -201.2822  XYY=          -2126.1588
  XXY=           1128.3601  XXZ=            756.0945  XZZ=          -2310.3422  YZZ=           1636.6220
  YYZ=            258.8069  XYZ=           -467.2005
 Hexadecapole moment (field-independent basis, Debye-Ang**3):
 XXXX=        -116966.0202 YYYY=         -74935.0663 ZZZZ=          -1657.6545 XXXY=          35599.8812
 XXXZ=          10304.8446 YYYX=          50172.9150 YYYZ=           -982.8384 ZZZX=          -2277.6086
 ZZZY=           1713.6460 XXYY=         -35278.6683 XXZZ=         -30090.3653 YYZZ=         -14963.0522
 XXYZ=          -5892.7464 YYXZ=           2990.5302 ZZXY=          19272.6748
 N-N= 2.852702071447D+03 E-N=-8.905810590470D+03  KE= 1.365562470061D+03
 No NMR shielding tensors so no spin-rotation constants.
 Leave Link  601 at Mon Jan 31 19:01:45 2022, MaxMem= 14763950080 cpu:              11.6 elap:               0.9
 (Enter /lustre1/prg/gaussian/bin/G16_C01_Linda_AVX/g16/l9999.exe)
 Electronic transition elements 
                 1             2             3             4             5 
      1  -0.137408D+04 -0.137405D+04 -0.137404D+04 -0.137403D+04 -0.137401D+04
      2   0.350198D+01  0.126686D-02  0.121762D+01 -0.707161D-03 -0.724153D+00
      3  -0.305396D-02  0.261984D+01 -0.203897D-02  0.195100D+01 -0.496572D-03
      4  -0.447618D-01 -0.958001D-01 -0.154625D-01 -0.116131D+00  0.105045D-01
      5  -0.234128D+00 -0.966278D-04 -0.142481D+00  0.127197D-03  0.109234D+00
      6   0.200520D-03 -0.269182D+00  0.238060D-03 -0.245441D+00  0.612494D-04
      7   0.301740D-02  0.113600D-01  0.177832D-02  0.175337D-01 -0.157938D-02
      8  -0.396290D-01 -0.183729D+00 -0.310542D-01 -0.435233D+00  0.912399D-02
      9  -0.229127D+00 -0.250996D+00  0.248303D+00 -0.389779D+00  0.108062D+00
     10  -0.301845D+01 -0.598049D+01 -0.249435D+01 -0.544806D+01  0.627244D+00
     11  -0.104064D+02  0.205193D+01 -0.633079D+01  0.579004D+00  0.485402D+01
     12  -0.814017D-02  0.705269D+01 -0.794027D-02  0.568811D+01 -0.146858D-02
     13   0.915407D-02  0.140702D+00  0.121923D-02  0.369259D-01 -0.949055D-03
     14   0.418297D+01 -0.598279D+01  0.231651D+01 -0.545688D+01 -0.114131D+01
     15  -0.277315D+00  0.227675D+00 -0.139313D-01  0.383190D+00 -0.166169D-02
     16  -0.533317D-01 -0.291592D+00 -0.286601D-01 -0.325229D+00  0.163480D-01
                 6 
      1  -0.137399D+04
      2   0.354149D-02
      3   0.149566D+00
      4   0.655207D-01
      5  -0.111763D-02
      6  -0.248728D-01
      7  -0.134237D-01
      8   0.381717D+00
      9   0.321878D+00
     10  -0.640589D+00
     11   0.136114D+00
     12   0.112474D+01
     13  -0.422957D-01
     14  -0.592784D+00
     15  -0.315368D+00
     16   0.163391D+00
 Unable to Open any file for archive entry.
 1\1\VILNIUS-FIZIKA151\FOpt\RM062X TD-FC\CC-pVDZ\C27H19B1F2N2\TOLISTE\3
 1-Jan-2022\0\\#p m062x cc-pvdz scrf=(cpcm,solvent=n,n-DiMethylFormamid
 e) td=(nstate=6,root=1) opt=tight nosymm density=all int=ultrafine fch
 k\\BDP-PP-phenyl, optimized R1 in toluene\\0,1\N,12.9480783732,-9.2085
 780731,-0.6320995664\C,14.1067522998,-9.8182885518,-0.4070738474\C,14.
 943221583,-8.9811357229,0.3877007161\C,14.1979564143,-7.8121724283,0.6
 378315385\C,12.9565739059,-7.9471976369,-0.003528918\C,10.5521404473,-
 4.9575348337,0.1332835474\C,10.5592032236,-3.5707438372,0.2193887377\C
 ,11.763667655,-2.8659018166,0.2635382407\C,12.9644173886,-3.574081614,
 0.1841541077\C,12.9651358207,-4.9608808973,0.0980022047\C,11.757435255
 8,-5.6994835332,0.1051804558\C,11.7540884879,-7.1491780526,0.006294441
 \C,10.5497454519,-7.9442742043,0.0276735571\C,9.3256297543,-7.80678144
 29,0.7009202031\C,8.5711389846,-8.9736267144,0.4690457393\C,9.38478575
 79,-9.8121344644,-0.3477534843\N,10.5388555156,-9.2052574262,-0.601850
 6664\F,11.7300621165,-11.1167972248,-1.4757942374\B,11.7325186528,-9.7
 296245594,-1.4337871999\F,11.7172012396,-9.1774923007,-2.7148408786\H,
 14.2997656691,-10.8030728419,-0.8255451381\H,14.4888757374,-6.98522423
 85,1.2762085828\H,9.595708414,-5.4678229114,0.0518081427\H,9.610107625
 3,-3.0340651554,0.2400166586\H,11.766193832,-1.7780940297,0.333660164\
 H,13.9151704324,-3.0400034226,0.1767343875\H,13.9173867597,-5.47386642
 85,-0.0113136093\H,9.0531247566,-6.9795763691,1.346973794\H,9.17891751
 46,-10.7962807869,-0.7615961989\C,16.2948817926,-9.2982287505,0.829461
 7367\C,17.0756120757,-8.3330076623,1.4943474246\C,16.8513489056,-10.57
 34604684,0.6081122004\C,18.3626728194,-8.6341055445,1.9244670264\C,18.
 1390221066,-10.8706015676,1.0393854344\C,18.9011195859,-9.9037736388,1
 .6998475954\H,16.671607591,-7.3350960471,1.667099424\H,16.2679871217,-
 11.3427015495,0.1013442074\H,18.9524345431,-7.8731352566,2.4363376063\
 H,18.5514556961,-11.8640225073,0.861001898\H,19.9110659686,-10.1384407
 643,2.0371841413\C,7.2306295813,-9.2881126438,0.9452437641\C,6.6625345
 802,-10.5591355015,0.7292505025\C,6.4725596495,-8.3247908326,1.6386013
 121\C,5.3854881531,-10.8539789873,1.1924900605\C,5.1960929314,-8.62359
 44368,2.1007107331\C,4.6458136173,-9.8889677194,1.8806124427\H,7.22836
 62194,-11.3268967039,0.2008267178\H,6.8857619707,-7.3302380781,1.80891
 29693\H,4.9637824162,-11.8440874985,1.0174392604\H,4.6238850357,-7.864
 1185034,2.6342998038\H,3.6441345696,-10.121721819,2.2429922645\\Versio
 n=ES64L-G16RevC.01\HF=-1374.1497238\RMSD=3.449e-09\RMSF=4.984e-07\Dipo
 le=0.0230067,0.5287411,2.0359749\Quadrupole=32.1883144,-10.5092157,-21
 .6790987,11.4086,44.5310485,-30.0839481\PG=C01 [X(C27H19B1F2N2)]\\@
 The archive entry for this job was punched.


 In the beginning there was nothing, which exploded.
 Job cpu time:       0 days  0 hours  8 minutes 45.1 seconds.
 Elapsed time:       0 days  4 hours 14 minutes 35.7 seconds.
 File lengths (MBytes):  RWF=   1886 Int=      0 D2E=      0 Chk=     92 Scr=      1
 Normal termination of Gaussian 16 at Mon Jan 31 19:01:48 2022.
