 Entering Gaussian System, Link 0=/lustre1/prg/gaussian/bin/G16_C01_Linda_AVX/g16/g16
 Initial command:
 /lustre1/prg/gaussian/bin/G16_C01_Linda_AVX/g16/l1.exe "/lustre1/prg/webmo/data/webmo20/toliste/4419/scratch/Gau-84930.inp" -scrdir="/lustre1/prg/webmo/data/webmo20/toliste/4419/scratch/"
 Default is to use a total of  16 processors:
                               16 via shared-memory
                                1 via Linda
 Entering Link 1 = /lustre1/prg/gaussian/bin/G16_C01_Linda_AVX/g16/l1.exe PID=     84931.
  
 Copyright (c) 1988-2019, Gaussian, Inc.  All Rights Reserved.
  
 This is part of the Gaussian(R) 16 program.  It is based on
 the Gaussian(R) 09 system (copyright 2009, Gaussian, Inc.),
 the Gaussian(R) 03 system (copyright 2003, Gaussian, Inc.),
 the Gaussian(R) 98 system (copyright 1998, Gaussian, Inc.),
 the Gaussian(R) 94 system (copyright 1995, Gaussian, Inc.),
 the Gaussian 92(TM) system (copyright 1992, Gaussian, Inc.),
 the Gaussian 90(TM) system (copyright 1990, Gaussian, Inc.),
 the Gaussian 88(TM) system (copyright 1988, Gaussian, Inc.),
 the Gaussian 86(TM) system (copyright 1986, Carnegie Mellon
 University), and the Gaussian 82(TM) system (copyright 1983,
 Carnegie Mellon University). Gaussian is a federally registered
 trademark of Gaussian, Inc.
  
 This software contains proprietary and confidential information,
 including trade secrets, belonging to Gaussian, Inc.
  
 This software is provided under written license and may be
 used, copied, transmitted, or stored only in accord with that
 written license.
  
 The following legend is applicable only to US Government
 contracts under FAR:
  
                    RESTRICTED RIGHTS LEGEND
  
 Use, reproduction and disclosure by the US Government is
 subject to restrictions as set forth in subparagraphs (a)
 and (c) of the Commercial Computer Software - Restricted
 Rights clause in FAR 52.227-19.
  
 Gaussian, Inc.
 340 Quinnipiac St., Bldg. 40, Wallingford CT 06492
  
  
 ---------------------------------------------------------------
 Warning -- This program may not be used in any manner that
 competes with the business of Gaussian, Inc. or will provide
 assistance to any competitor of Gaussian, Inc.  The licensee
 of this program is prohibited from giving any competitor of
 Gaussian, Inc. access to this program.  By using this program,
 the user acknowledges that Gaussian, Inc. is engaged in the
 business of creating and licensing software in the field of
 computational chemistry and represents and warrants to the
 licensee that it is not a competitor of Gaussian, Inc. and that
 it will not use this program in any manner prohibited above.
 ---------------------------------------------------------------
  

 Cite this work as:
 Gaussian 16, Revision C.01,
 M. J. Frisch, G. W. Trucks, H. B. Schlegel, G. E. Scuseria, 
 M. A. Robb, J. R. Cheeseman, G. Scalmani, V. Barone, 
 G. A. Petersson, H. Nakatsuji, X. Li, M. Caricato, A. V. Marenich, 
 J. Bloino, B. G. Janesko, R. Gomperts, B. Mennucci, H. P. Hratchian, 
 J. V. Ortiz, A. F. Izmaylov, J. L. Sonnenberg, D. Williams-Young, 
 F. Ding, F. Lipparini, F. Egidi, J. Goings, B. Peng, A. Petrone, 
 T. Henderson, D. Ranasinghe, V. G. Zakrzewski, J. Gao, N. Rega, 
 G. Zheng, W. Liang, M. Hada, M. Ehara, K. Toyota, R. Fukuda, 
 J. Hasegawa, M. Ishida, T. Nakajima, Y. Honda, O. Kitao, H. Nakai, 
 T. Vreven, K. Throssell, J. A. Montgomery, Jr., J. E. Peralta, 
 F. Ogliaro, M. J. Bearpark, J. J. Heyd, E. N. Brothers, K. N. Kudin, 
 V. N. Staroverov, T. A. Keith, R. Kobayashi, J. Normand, 
 K. Raghavachari, A. P. Rendell, J. C. Burant, S. S. Iyengar, 
 J. Tomasi, M. Cossi, J. M. Millam, M. Klene, C. Adamo, R. Cammi, 
 J. W. Ochterski, R. L. Martin, K. Morokuma, O. Farkas, 
 J. B. Foresman, and D. J. Fox, Gaussian, Inc., Wallingford CT, 2019.
 
 ******************************************
 Gaussian 16:  ES64L-G16RevC.01  3-Jul-2019
                 1-Feb-2022 
 ******************************************
 %LindaWorkers=fizika110,fizika111,fizika112,fizika113,fizika159,fizika160,fizika
 161,fizika162
 %chk=bodipy.chk
 SetLPE:  input flags=" -opt "Tsnet.Node.lindarsharg: ssh" "
 SetLPE:    new flags=" -opt "Tsnet.Node.lindarsharg: ssh" -opt 'Tsnet.Node.lindarsharg: ssh'  -nodelist 'fizika110.fizika.bullx fizika111.fizika.bullx fizika112.fizika.bullx fizika113.fizika.bullx fizika159.fizika.bullx fizika160.fizika.bullx fizika161.fizika.bullx fizika162.fizika.bullx' -env GAUSS_MDEF=14763950080 -env GAUSS_EXEDIR="/lustre1/prg/gaussian/bin/G16_C01_Linda_AVX/g16/bsd:/lustre1/prg/gaussian/bin/G16_C01_Linda_AVX/g16/private:/lustre1/prg/gaussian/bin/G16_C01_Linda_AVX/g16""
 Will use up to    8 processors via Linda.
 ----------------------------------------------------------------------
 #p m062x cc-pvdz scrf=(cpcm,solvent=TetraHydroFuran) td=(nstate=6,root
 =1) opt=tight nosymm density=all int=ultrafine fchk
 ----------------------------------------------------------------------
 1/7=10,18=20,19=15,26=6,38=1/1,3;
 2/9=110,12=2,15=1,17=6,18=5,40=1/2;
 3/5=16,11=9,25=1,30=1,70=2101,71=1,72=20,74=-55,75=-5/1,2,3,8;
 4//1;
 5/5=2,38=5,53=20/2;
 8/6=1,10=1,107=1,108=6/1;
 9/8=1,15=2,30=10,41=6,42=1,70=2/14;
 10/5=4,28=1,31=1/2;
 6/7=2,8=2,9=2,10=2,22=-2/1;
 7/12=6,13=5,14=1,30=1/1,2,3,16;
 1/7=10,18=20,19=15,26=6/3(2);
 2/9=110,15=1/2;
 99//99;
 2/9=110,15=1/2;
 3/5=16,11=9,25=1,30=1,70=2105,71=1,72=20,74=-55,75=-5/1,2,3,8;
 4/5=5,16=3,69=1/1;
 5/5=2,38=5,53=20/2;
 8/6=1,10=1,107=1,108=6/1;
 9/8=1,15=2,30=10,41=6,42=1,49=4,70=2/14;
 10/5=4,28=1,31=1/2;
 7/12=6,13=5,14=1,30=1/1,2,3,16;
 1/7=10,18=20,19=15,26=6/3(-8);
 2/9=110,15=1/2;
 6/7=2,8=2,9=2,10=2,22=-2/1;
 99/9=10/99;
 Leave Link    1 at Tue Feb  1 12:15:59 2022, MaxMem=           0 cpu:               2.5 elap:               0.2
 (Enter /lustre1/prg/gaussian/bin/G16_C01_Linda_AVX/g16/l101.exe)
 --------------------------------------
 BDP-PP-phenyl, optimized R1 in toluene
 --------------------------------------
 Symbolic Z-matrix:
 Charge =  0 Multiplicity = 1
 N                     12.9455  -9.17441  -0.67918 
 C                     14.09211  -9.79984  -0.43656 
 C                     14.92112  -8.98055   0.38003 
 C                     14.18185  -7.80336   0.62711 
 C                     12.9552  -7.92114  -0.03778 
 C                     10.5502  -4.93335   0.10629 
 C                     10.55775  -3.54846   0.20397 
 C                     11.76274  -2.8445    0.25565 
 C                     12.96423  -3.55132   0.17089 
 C                     12.96584  -4.93621   0.07313 
 C                     11.75691  -5.67489   0.07416 
 C                     11.75382  -7.11821  -0.02702 
 C                     10.5506  -7.91836  -0.0066 
 C                     9.34192  -7.79806   0.68993 
 C                     8.59349  -8.97327   0.46128 
 C                     9.39914  -9.79405  -0.37694 
 N                     10.54064  -9.17133  -0.6487 
 F                     11.72933  -11.0663  -1.55738 
 B                     11.73184  -9.68129  -1.49992 
 F                     11.71659  -9.10067  -2.76128 
 H                     14.27987  -10.78149  -0.86393 
 H                     14.46594  -6.98524   1.28009 
 H                     9.59604  -5.44717   0.01644 
 H                     9.60942  -3.01042   0.22578 
 H                     11.76509  -1.75722   0.33363 
 H                     13.91406  -3.0155    0.16644 
 H                     13.91597  -5.45231  -0.04277 
 H                     9.07672  -6.97952   1.35025 
 H                     9.19826  -10.77517  -0.79954 
 C                     16.26198  -9.31157   0.84175 
 C                     17.04739  -8.35407   1.51166 
 C                     16.80494  -10.59503   0.63603 
 C                     18.32402  -8.66959   1.96096 
 C                     18.08196  -10.9071   1.08621 
 C                     18.84829  -9.94716   1.75123 
 H                     16.65425  -7.34973   1.67147 
 H                     16.21613  -11.35892   0.12743 
 H                     18.91722  -7.91351   2.47621 
 H                     18.48302  -11.90725   0.91962 
 H                     19.85033  -10.19344   2.10359 
 C                     7.26416  -9.30139   0.95701 
 C                     6.7103   -10.5813   0.75828 
 C                     6.50104  -8.34468   1.65337 
 C                     5.44429  -10.89067   1.24025 
 C                     5.2354   -8.6575    2.13449 
 C                     4.70004  -9.93148   1.93105 
 H                     7.28185  -11.34461   0.22951 
 H                     6.90278  -7.34312   1.80911 
 H                     5.0345   -11.88804   1.07833 
 H                     4.65946  -7.90206   2.6699 
 H                     3.70657  -10.17557   2.30829 
 
 ITRead=  0  0  0  0  0  0  0  0  0  0  0  0  0  0  0  0  0  0  0  0
 ITRead=  0  0  0  0  0  0  0  0  0  0  0  0  0  0  0  0  0  0  0  0
 ITRead=  0  0  0  0  0  0  0  0  0  0  0
 MicOpt= -1 -1 -1 -1 -1 -1 -1 -1 -1 -1 -1 -1 -1 -1 -1 -1 -1 -1 -1 -1
 MicOpt= -1 -1 -1 -1 -1 -1 -1 -1 -1 -1 -1 -1 -1 -1 -1 -1 -1 -1 -1 -1
 MicOpt= -1 -1 -1 -1 -1 -1 -1 -1 -1 -1 -1
 NAtoms=     51 NQM=       51 NQMF=       0 NMMI=      0 NMMIF=      0
                NMic=       0 NMicF=      0.
                    Isotopes and Nuclear Properties:
 (Nuclear quadrupole moments (NQMom) in fm**2, nuclear magnetic moments (NMagM)
  in nuclear magnetons)

  Atom         1           2           3           4           5           6           7           8           9          10
 IAtWgt=          14          12          12          12          12          12          12          12          12          12
 AtmWgt=  14.0030740  12.0000000  12.0000000  12.0000000  12.0000000  12.0000000  12.0000000  12.0000000  12.0000000  12.0000000
 NucSpn=           2           0           0           0           0           0           0           0           0           0
 AtZEff=  -0.0000000  -0.0000000  -0.0000000  -0.0000000  -0.0000000  -0.0000000  -0.0000000  -0.0000000  -0.0000000  -0.0000000
 NQMom=    2.0440000   0.0000000   0.0000000   0.0000000   0.0000000   0.0000000   0.0000000   0.0000000   0.0000000   0.0000000
 NMagM=    0.4037610   0.0000000   0.0000000   0.0000000   0.0000000   0.0000000   0.0000000   0.0000000   0.0000000   0.0000000
 AtZNuc=   7.0000000   6.0000000   6.0000000   6.0000000   6.0000000   6.0000000   6.0000000   6.0000000   6.0000000   6.0000000

  Atom        11          12          13          14          15          16          17          18          19          20
 IAtWgt=          12          12          12          12          12          12          14          19          11          19
 AtmWgt=  12.0000000  12.0000000  12.0000000  12.0000000  12.0000000  12.0000000  14.0030740  18.9984032  11.0093053  18.9984032
 NucSpn=           0           0           0           0           0           0           2           1           3           1
 AtZEff=  -0.0000000  -0.0000000  -0.0000000  -0.0000000  -0.0000000  -0.0000000  -0.0000000  -0.0000000  -0.0000000  -0.0000000
 NQMom=    0.0000000   0.0000000   0.0000000   0.0000000   0.0000000   0.0000000   2.0440000   0.0000000   4.0590000   0.0000000
 NMagM=    0.0000000   0.0000000   0.0000000   0.0000000   0.0000000   0.0000000   0.4037610   2.6288670   2.6886370   2.6288670
 AtZNuc=   6.0000000   6.0000000   6.0000000   6.0000000   6.0000000   6.0000000   7.0000000   9.0000000   5.0000000   9.0000000

  Atom        21          22          23          24          25          26          27          28          29          30
 IAtWgt=           1           1           1           1           1           1           1           1           1          12
 AtmWgt=   1.0078250   1.0078250   1.0078250   1.0078250   1.0078250   1.0078250   1.0078250   1.0078250   1.0078250  12.0000000
 NucSpn=           1           1           1           1           1           1           1           1           1           0
 AtZEff=  -0.0000000  -0.0000000  -0.0000000  -0.0000000  -0.0000000  -0.0000000  -0.0000000  -0.0000000  -0.0000000  -0.0000000
 NQMom=    0.0000000   0.0000000   0.0000000   0.0000000   0.0000000   0.0000000   0.0000000   0.0000000   0.0000000   0.0000000
 NMagM=    2.7928460   2.7928460   2.7928460   2.7928460   2.7928460   2.7928460   2.7928460   2.7928460   2.7928460   0.0000000
 AtZNuc=   1.0000000   1.0000000   1.0000000   1.0000000   1.0000000   1.0000000   1.0000000   1.0000000   1.0000000   6.0000000

  Atom        31          32          33          34          35          36          37          38          39          40
 IAtWgt=          12          12          12          12          12           1           1           1           1           1
 AtmWgt=  12.0000000  12.0000000  12.0000000  12.0000000  12.0000000   1.0078250   1.0078250   1.0078250   1.0078250   1.0078250
 NucSpn=           0           0           0           0           0           1           1           1           1           1
 AtZEff=  -0.0000000  -0.0000000  -0.0000000  -0.0000000  -0.0000000  -0.0000000  -0.0000000  -0.0000000  -0.0000000  -0.0000000
 NQMom=    0.0000000   0.0000000   0.0000000   0.0000000   0.0000000   0.0000000   0.0000000   0.0000000   0.0000000   0.0000000
 NMagM=    0.0000000   0.0000000   0.0000000   0.0000000   0.0000000   2.7928460   2.7928460   2.7928460   2.7928460   2.7928460
 AtZNuc=   6.0000000   6.0000000   6.0000000   6.0000000   6.0000000   1.0000000   1.0000000   1.0000000   1.0000000   1.0000000

  Atom        41          42          43          44          45          46          47          48          49          50
 IAtWgt=          12          12          12          12          12          12           1           1           1           1
 AtmWgt=  12.0000000  12.0000000  12.0000000  12.0000000  12.0000000  12.0000000   1.0078250   1.0078250   1.0078250   1.0078250
 NucSpn=           0           0           0           0           0           0           1           1           1           1
 AtZEff=  -0.0000000  -0.0000000  -0.0000000  -0.0000000  -0.0000000  -0.0000000  -0.0000000  -0.0000000  -0.0000000  -0.0000000
 NQMom=    0.0000000   0.0000000   0.0000000   0.0000000   0.0000000   0.0000000   0.0000000   0.0000000   0.0000000   0.0000000
 NMagM=    0.0000000   0.0000000   0.0000000   0.0000000   0.0000000   0.0000000   2.7928460   2.7928460   2.7928460   2.7928460
 AtZNuc=   6.0000000   6.0000000   6.0000000   6.0000000   6.0000000   6.0000000   1.0000000   1.0000000   1.0000000   1.0000000

  Atom        51
 IAtWgt=           1
 AtmWgt=   1.0078250
 NucSpn=           1
 AtZEff=  -0.0000000
 NQMom=    0.0000000
 NMagM=    2.7928460
 AtZNuc=   1.0000000
 Leave Link  101 at Tue Feb  1 12:16:00 2022, MaxMem= 14763950080 cpu:              12.3 elap:               0.8
 (Enter /lustre1/prg/gaussian/bin/G16_C01_Linda_AVX/g16/l103.exe)

 GradGradGradGradGradGradGradGradGradGradGradGradGradGradGradGradGradGrad
 Berny optimization.
 Initialization pass.
                           ----------------------------
                           !    Initial Parameters    !
                           ! (Angstroms and Degrees)  !
 --------------------------                            --------------------------
 ! Name  Definition              Value          Derivative Info.                !
 --------------------------------------------------------------------------------
 ! R1    R(1,2)                  1.3284         estimate D2E/DX2                !
 ! R2    R(1,5)                  1.4079         estimate D2E/DX2                !
 ! R3    R(1,19)                 1.5503         estimate D2E/DX2                !
 ! R4    R(2,3)                  1.4231         estimate D2E/DX2                !
 ! R5    R(2,21)                 1.087          estimate D2E/DX2                !
 ! R6    R(3,4)                  1.4119         estimate D2E/DX2                !
 ! R7    R(3,30)                 1.4563         estimate D2E/DX2                !
 ! R8    R(4,5)                  1.4002         estimate D2E/DX2                !
 ! R9    R(4,22)                 1.0846         estimate D2E/DX2                !
 ! R10   R(5,12)                 1.445          estimate D2E/DX2                !
 ! R11   R(6,7)                  1.3883         estimate D2E/DX2                !
 ! R12   R(6,11)                 1.4167         estimate D2E/DX2                !
 ! R13   R(6,23)                 1.0874         estimate D2E/DX2                !
 ! R14   R(7,8)                  1.3965         estimate D2E/DX2                !
 ! R15   R(7,24)                 1.0905         estimate D2E/DX2                !
 ! R16   R(8,9)                  1.3966         estimate D2E/DX2                !
 ! R17   R(8,25)                 1.0901         estimate D2E/DX2                !
 ! R18   R(9,10)                 1.3883         estimate D2E/DX2                !
 ! R19   R(9,26)                 1.0905         estimate D2E/DX2                !
 ! R20   R(10,11)                1.4167         estimate D2E/DX2                !
 ! R21   R(10,27)                1.0875         estimate D2E/DX2                !
 ! R22   R(11,12)                1.4469         estimate D2E/DX2                !
 ! R23   R(12,13)                1.4451         estimate D2E/DX2                !
 ! R24   R(13,14)                1.4002         estimate D2E/DX2                !
 ! R25   R(13,17)                1.408          estimate D2E/DX2                !
 ! R26   R(14,15)                1.4119         estimate D2E/DX2                !
 ! R27   R(14,28)                1.0846         estimate D2E/DX2                !
 ! R28   R(15,16)                1.4232         estimate D2E/DX2                !
 ! R29   R(15,41)                1.4562         estimate D2E/DX2                !
 ! R30   R(16,17)                1.3284         estimate D2E/DX2                !
 ! R31   R(16,29)                1.087          estimate D2E/DX2                !
 ! R32   R(17,19)                1.5504         estimate D2E/DX2                !
 ! R33   R(18,19)                1.3862         estimate D2E/DX2                !
 ! R34   R(19,20)                1.3887         estimate D2E/DX2                !
 ! R35   R(30,31)                1.408          estimate D2E/DX2                !
 ! R36   R(30,32)                1.4087         estimate D2E/DX2                !
 ! R37   R(31,33)                1.3897         estimate D2E/DX2                !
 ! R38   R(31,36)                1.0903         estimate D2E/DX2                !
 ! R39   R(32,34)                1.3895         estimate D2E/DX2                !
 ! R40   R(32,37)                1.0904         estimate D2E/DX2                !
 ! R41   R(33,35)                1.3968         estimate D2E/DX2                !
 ! R42   R(33,38)                1.0904         estimate D2E/DX2                !
 ! R43   R(34,35)                1.3968         estimate D2E/DX2                !
 ! R44   R(34,39)                1.0904         estimate D2E/DX2                !
 ! R45   R(35,40)                1.0904         estimate D2E/DX2                !
 ! R46   R(41,42)                1.4087         estimate D2E/DX2                !
 ! R47   R(41,43)                1.408          estimate D2E/DX2                !
 ! R48   R(42,44)                1.3895         estimate D2E/DX2                !
 ! R49   R(42,47)                1.0904         estimate D2E/DX2                !
 ! R50   R(43,45)                1.3897         estimate D2E/DX2                !
 ! R51   R(43,48)                1.0903         estimate D2E/DX2                !
 ! R52   R(44,46)                1.3968         estimate D2E/DX2                !
 ! R53   R(44,49)                1.0904         estimate D2E/DX2                !
 ! R54   R(45,46)                1.3968         estimate D2E/DX2                !
 ! R55   R(45,50)                1.0904         estimate D2E/DX2                !
 ! R56   R(46,51)                1.0904         estimate D2E/DX2                !
 ! A1    A(2,1,5)              109.2649         estimate D2E/DX2                !
 ! A2    A(2,1,19)             128.2032         estimate D2E/DX2                !
 ! A3    A(5,1,19)             122.5218         estimate D2E/DX2                !
 ! A4    A(1,2,3)              109.667          estimate D2E/DX2                !
 ! A5    A(1,2,21)             120.1629         estimate D2E/DX2                !
 ! A6    A(3,2,21)             130.1571         estimate D2E/DX2                !
 ! A7    A(2,3,4)              105.9861         estimate D2E/DX2                !
 ! A8    A(2,3,30)             125.975          estimate D2E/DX2                !
 ! A9    A(4,3,30)             128.0368         estimate D2E/DX2                !
 ! A10   A(3,4,5)              107.7865         estimate D2E/DX2                !
 ! A11   A(3,4,22)             126.664          estimate D2E/DX2                !
 ! A12   A(5,4,22)             125.3652         estimate D2E/DX2                !
 ! A13   A(1,5,4)              107.2925         estimate D2E/DX2                !
 ! A14   A(1,5,12)             119.4906         estimate D2E/DX2                !
 ! A15   A(4,5,12)             132.6913         estimate D2E/DX2                !
 ! A16   A(7,6,11)             121.2705         estimate D2E/DX2                !
 ! A17   A(7,6,23)             118.8109         estimate D2E/DX2                !
 ! A18   A(11,6,23)            119.8799         estimate D2E/DX2                !
 ! A19   A(6,7,8)              120.6726         estimate D2E/DX2                !
 ! A20   A(6,7,24)             119.2623         estimate D2E/DX2                !
 ! A21   A(8,7,24)             120.0592         estimate D2E/DX2                !
 ! A22   A(7,8,9)              119.0103         estimate D2E/DX2                !
 ! A23   A(7,8,25)             120.4845         estimate D2E/DX2                !
 ! A24   A(9,8,25)             120.4845         estimate D2E/DX2                !
 ! A25   A(8,9,10)             120.6724         estimate D2E/DX2                !
 ! A26   A(8,9,26)             120.0591         estimate D2E/DX2                !
 ! A27   A(10,9,26)            119.2626         estimate D2E/DX2                !
 ! A28   A(9,10,11)            121.2691         estimate D2E/DX2                !
 ! A29   A(9,10,27)            118.8119         estimate D2E/DX2                !
 ! A30   A(11,10,27)           119.8804         estimate D2E/DX2                !
 ! A31   A(6,11,10)            116.9967         estimate D2E/DX2                !
 ! A32   A(6,11,12)            121.4603         estimate D2E/DX2                !
 ! A33   A(10,11,12)           121.4589         estimate D2E/DX2                !
 ! A34   A(5,12,11)            123.5752         estimate D2E/DX2                !
 ! A35   A(5,12,13)            112.6229         estimate D2E/DX2                !
 ! A36   A(11,12,13)           123.5814         estimate D2E/DX2                !
 ! A37   A(12,13,14)           132.7018         estimate D2E/DX2                !
 ! A38   A(12,13,17)           119.4844         estimate D2E/DX2                !
 ! A39   A(14,13,17)           107.2906         estimate D2E/DX2                !
 ! A40   A(13,14,15)           107.7885         estimate D2E/DX2                !
 ! A41   A(13,14,28)           125.364          estimate D2E/DX2                !
 ! A42   A(15,14,28)           126.6654         estimate D2E/DX2                !
 ! A43   A(14,15,16)           105.9826         estimate D2E/DX2                !
 ! A44   A(14,15,41)           128.0477         estimate D2E/DX2                !
 ! A45   A(16,15,41)           125.9675         estimate D2E/DX2                !
 ! A46   A(15,16,17)           109.6688         estimate D2E/DX2                !
 ! A47   A(15,16,29)           130.1609         estimate D2E/DX2                !
 ! A48   A(17,16,29)           120.1579         estimate D2E/DX2                !
 ! A49   A(13,17,16)           109.2662         estimate D2E/DX2                !
 ! A50   A(13,17,19)           122.5262         estimate D2E/DX2                !
 ! A51   A(16,17,19)           128.1967         estimate D2E/DX2                !
 ! A52   A(1,19,17)            101.7287         estimate D2E/DX2                !
 ! A53   A(1,19,18)            110.4892         estimate D2E/DX2                !
 ! A54   A(1,19,20)            110.6562         estimate D2E/DX2                !
 ! A55   A(17,19,18)           110.4881         estimate D2E/DX2                !
 ! A56   A(17,19,20)           110.6555         estimate D2E/DX2                !
 ! A57   A(18,19,20)           112.3391         estimate D2E/DX2                !
 ! A58   A(3,30,31)            120.6568         estimate D2E/DX2                !
 ! A59   A(3,30,32)            121.0438         estimate D2E/DX2                !
 ! A60   A(31,30,32)           118.2989         estimate D2E/DX2                !
 ! A61   A(30,31,33)           120.7886         estimate D2E/DX2                !
 ! A62   A(30,31,36)           119.671          estimate D2E/DX2                !
 ! A63   A(33,31,36)           119.5375         estimate D2E/DX2                !
 ! A64   A(30,32,34)           120.7659         estimate D2E/DX2                !
 ! A65   A(30,32,37)           119.8865         estimate D2E/DX2                !
 ! A66   A(34,32,37)           119.3444         estimate D2E/DX2                !
 ! A67   A(31,33,35)           120.2603         estimate D2E/DX2                !
 ! A68   A(31,33,38)           119.6764         estimate D2E/DX2                !
 ! A69   A(35,33,38)           120.063          estimate D2E/DX2                !
 ! A70   A(32,34,35)           120.2727         estimate D2E/DX2                !
 ! A71   A(32,34,39)           119.6398         estimate D2E/DX2                !
 ! A72   A(35,34,39)           120.0873         estimate D2E/DX2                !
 ! A73   A(33,35,34)           119.6133         estimate D2E/DX2                !
 ! A74   A(33,35,40)           120.1994         estimate D2E/DX2                !
 ! A75   A(34,35,40)           120.1872         estimate D2E/DX2                !
 ! A76   A(15,41,42)           121.0391         estimate D2E/DX2                !
 ! A77   A(15,41,43)           120.6645         estimate D2E/DX2                !
 ! A78   A(42,41,43)           118.2959         estimate D2E/DX2                !
 ! A79   A(41,42,44)           120.7689         estimate D2E/DX2                !
 ! A80   A(41,42,47)           119.8919         estimate D2E/DX2                !
 ! A81   A(44,42,47)           119.3363         estimate D2E/DX2                !
 ! A82   A(41,43,45)           120.7891         estimate D2E/DX2                !
 ! A83   A(41,43,48)           119.6768         estimate D2E/DX2                !
 ! A84   A(45,43,48)           119.5314         estimate D2E/DX2                !
 ! A85   A(42,44,46)           120.2717         estimate D2E/DX2                !
 ! A86   A(42,44,49)           119.6406         estimate D2E/DX2                !
 ! A87   A(46,44,49)           120.0875         estimate D2E/DX2                !
 ! A88   A(43,45,46)           120.262          estimate D2E/DX2                !
 ! A89   A(43,45,50)           119.6751         estimate D2E/DX2                !
 ! A90   A(46,45,50)           120.0626         estimate D2E/DX2                !
 ! A91   A(44,46,45)           119.6122         estimate D2E/DX2                !
 ! A92   A(44,46,51)           120.1883         estimate D2E/DX2                !
 ! A93   A(45,46,51)           120.1995         estimate D2E/DX2                !
 ! D1    D(5,1,2,3)             -0.1655         estimate D2E/DX2                !
 ! D2    D(5,1,2,21)          -178.9807         estimate D2E/DX2                !
 ! D3    D(19,1,2,3)          -179.0177         estimate D2E/DX2                !
 ! D4    D(19,1,2,21)            2.167          estimate D2E/DX2                !
 ! D5    D(2,1,5,4)             -0.1967         estimate D2E/DX2                !
 ! D6    D(2,1,5,12)          -172.9086         estimate D2E/DX2                !
 ! D7    D(19,1,5,4)           178.7337         estimate D2E/DX2                !
 ! D8    D(19,1,5,12)            6.0217         estimate D2E/DX2                !
 ! D9    D(2,1,19,17)          140.3064         estimate D2E/DX2                !
 ! D10   D(2,1,19,18)           22.9711         estimate D2E/DX2                !
 ! D11   D(2,1,19,20)         -102.0939         estimate D2E/DX2                !
 ! D12   D(5,1,19,17)          -38.4086         estimate D2E/DX2                !
 ! D13   D(5,1,19,18)         -155.7439         estimate D2E/DX2                !
 ! D14   D(5,1,19,20)           79.1911         estimate D2E/DX2                !
 ! D15   D(1,2,3,4)              0.4574         estimate D2E/DX2                !
 ! D16   D(1,2,3,30)          -179.0483         estimate D2E/DX2                !
 ! D17   D(21,2,3,4)           179.1172         estimate D2E/DX2                !
 ! D18   D(21,2,3,30)           -0.3886         estimate D2E/DX2                !
 ! D19   D(2,3,4,5)             -0.5678         estimate D2E/DX2                !
 ! D20   D(2,3,4,22)           174.6843         estimate D2E/DX2                !
 ! D21   D(30,3,4,5)           178.9244         estimate D2E/DX2                !
 ! D22   D(30,3,4,22)           -5.8235         estimate D2E/DX2                !
 ! D23   D(2,3,30,31)          172.3184         estimate D2E/DX2                !
 ! D24   D(2,3,30,32)           -7.935          estimate D2E/DX2                !
 ! D25   D(4,3,30,31)           -7.0783         estimate D2E/DX2                !
 ! D26   D(4,3,30,32)          172.6683         estimate D2E/DX2                !
 ! D27   D(3,4,5,1)              0.4792         estimate D2E/DX2                !
 ! D28   D(3,4,5,12)           171.839          estimate D2E/DX2                !
 ! D29   D(22,4,5,1)          -174.8506         estimate D2E/DX2                !
 ! D30   D(22,4,5,12)           -3.4909         estimate D2E/DX2                !
 ! D31   D(1,5,12,11)         -153.2526         estimate D2E/DX2                !
 ! D32   D(1,5,12,13)           31.9771         estimate D2E/DX2                !
 ! D33   D(4,5,12,11)           36.2325         estimate D2E/DX2                !
 ! D34   D(4,5,12,13)         -138.5378         estimate D2E/DX2                !
 ! D35   D(11,6,7,8)             0.8552         estimate D2E/DX2                !
 ! D36   D(11,6,7,24)          179.9822         estimate D2E/DX2                !
 ! D37   D(23,6,7,8)          -176.8789         estimate D2E/DX2                !
 ! D38   D(23,6,7,24)            2.248          estimate D2E/DX2                !
 ! D39   D(7,6,11,10)           -3.3153         estimate D2E/DX2                !
 ! D40   D(7,6,11,12)          179.9748         estimate D2E/DX2                !
 ! D41   D(23,6,11,10)         174.395          estimate D2E/DX2                !
 ! D42   D(23,6,11,12)          -2.3149         estimate D2E/DX2                !
 ! D43   D(6,7,8,9)              1.7289         estimate D2E/DX2                !
 ! D44   D(6,7,8,25)          -179.9205         estimate D2E/DX2                !
 ! D45   D(24,7,8,9)          -177.3911         estimate D2E/DX2                !
 ! D46   D(24,7,8,25)            0.9595         estimate D2E/DX2                !
 ! D47   D(7,8,9,10)            -1.7307         estimate D2E/DX2                !
 ! D48   D(7,8,9,26)           177.3809         estimate D2E/DX2                !
 ! D49   D(25,8,9,10)          179.9187         estimate D2E/DX2                !
 ! D50   D(25,8,9,26)           -0.9697         estimate D2E/DX2                !
 ! D51   D(8,9,10,11)           -0.8516         estimate D2E/DX2                !
 ! D52   D(8,9,10,27)          176.8869         estimate D2E/DX2                !
 ! D53   D(26,9,10,11)        -179.9702         estimate D2E/DX2                !
 ! D54   D(26,9,10,27)          -2.2317         estimate D2E/DX2                !
 ! D55   D(9,10,11,6)            3.3134         estimate D2E/DX2                !
 ! D56   D(9,10,11,12)        -179.9766         estimate D2E/DX2                !
 ! D57   D(27,10,11,6)        -174.4012         estimate D2E/DX2                !
 ! D58   D(27,10,11,12)          2.3087         estimate D2E/DX2                !
 ! D59   D(6,11,12,5)         -178.777          estimate D2E/DX2                !
 ! D60   D(6,11,12,13)          -4.5732         estimate D2E/DX2                !
 ! D61   D(10,11,12,5)           4.6599         estimate D2E/DX2                !
 ! D62   D(10,11,12,13)        178.8637         estimate D2E/DX2                !
 ! D63   D(5,12,13,14)         138.5248         estimate D2E/DX2                !
 ! D64   D(5,12,13,17)         -32.0122         estimate D2E/DX2                !
 ! D65   D(11,12,13,14)        -36.2452         estimate D2E/DX2                !
 ! D66   D(11,12,13,17)        153.2179         estimate D2E/DX2                !
 ! D67   D(12,13,14,15)       -171.8702         estimate D2E/DX2                !
 ! D68   D(12,13,14,28)          3.4891         estimate D2E/DX2                !
 ! D69   D(17,13,14,15)         -0.4908         estimate D2E/DX2                !
 ! D70   D(17,13,14,28)        174.8685         estimate D2E/DX2                !
 ! D71   D(12,13,17,16)        172.9373         estimate D2E/DX2                !
 ! D72   D(12,13,17,19)         -5.9485         estimate D2E/DX2                !
 ! D73   D(14,13,17,16)          0.2072         estimate D2E/DX2                !
 ! D74   D(14,13,17,19)       -178.6786         estimate D2E/DX2                !
 ! D75   D(13,14,15,16)          0.5763         estimate D2E/DX2                !
 ! D76   D(13,14,15,41)       -178.9104         estimate D2E/DX2                !
 ! D77   D(28,14,15,16)       -174.7056         estimate D2E/DX2                !
 ! D78   D(28,14,15,41)          5.8078         estimate D2E/DX2                !
 ! D79   D(14,15,16,17)         -0.4595         estimate D2E/DX2                !
 ! D80   D(14,15,16,29)       -179.1546         estimate D2E/DX2                !
 ! D81   D(41,15,16,17)        179.041          estimate D2E/DX2                !
 ! D82   D(41,15,16,29)          0.3459         estimate D2E/DX2                !
 ! D83   D(14,15,41,42)       -173.0047         estimate D2E/DX2                !
 ! D84   D(14,15,41,43)          6.7562         estimate D2E/DX2                !
 ! D85   D(16,15,41,42)          7.6051         estimate D2E/DX2                !
 ! D86   D(16,15,41,43)       -172.634          estimate D2E/DX2                !
 ! D87   D(15,16,17,13)          0.1603         estimate D2E/DX2                !
 ! D88   D(15,16,17,19)        178.9649         estimate D2E/DX2                !
 ! D89   D(29,16,17,13)        179.007          estimate D2E/DX2                !
 ! D90   D(29,16,17,19)         -2.1885         estimate D2E/DX2                !
 ! D91   D(13,17,19,1)          38.3708         estimate D2E/DX2                !
 ! D92   D(13,17,19,18)        155.7069         estimate D2E/DX2                !
 ! D93   D(13,17,19,20)        -79.2294         estimate D2E/DX2                !
 ! D94   D(16,17,19,1)        -140.2907         estimate D2E/DX2                !
 ! D95   D(16,17,19,18)        -22.9546         estimate D2E/DX2                !
 ! D96   D(16,17,19,20)        102.1091         estimate D2E/DX2                !
 ! D97   D(3,30,31,33)         179.5871         estimate D2E/DX2                !
 ! D98   D(3,30,31,36)          -1.0368         estimate D2E/DX2                !
 ! D99   D(32,30,31,33)         -0.1663         estimate D2E/DX2                !
 ! D100  D(32,30,31,36)        179.2098         estimate D2E/DX2                !
 ! D101  D(3,30,32,34)        -179.6061         estimate D2E/DX2                !
 ! D102  D(3,30,32,37)          -0.2542         estimate D2E/DX2                !
 ! D103  D(31,30,32,34)          0.1463         estimate D2E/DX2                !
 ! D104  D(31,30,32,37)        179.4983         estimate D2E/DX2                !
 ! D105  D(30,31,33,35)          0.0824         estimate D2E/DX2                !
 ! D106  D(30,31,33,38)        179.8969         estimate D2E/DX2                !
 ! D107  D(36,31,33,35)       -179.2945         estimate D2E/DX2                !
 ! D108  D(36,31,33,38)          0.52           estimate D2E/DX2                !
 ! D109  D(30,32,34,35)         -0.0424         estimate D2E/DX2                !
 ! D110  D(30,32,34,39)        179.8229         estimate D2E/DX2                !
 ! D111  D(37,32,34,35)       -179.3978         estimate D2E/DX2                !
 ! D112  D(37,32,34,39)          0.4675         estimate D2E/DX2                !
 ! D113  D(31,33,35,34)          0.0254         estimate D2E/DX2                !
 ! D114  D(31,33,35,40)        179.9589         estimate D2E/DX2                !
 ! D115  D(38,33,35,34)       -179.7884         estimate D2E/DX2                !
 ! D116  D(38,33,35,40)          0.1451         estimate D2E/DX2                !
 ! D117  D(32,34,35,33)         -0.0453         estimate D2E/DX2                !
 ! D118  D(32,34,35,40)       -179.9788         estimate D2E/DX2                !
 ! D119  D(39,34,35,33)       -179.91           estimate D2E/DX2                !
 ! D120  D(39,34,35,40)          0.1565         estimate D2E/DX2                !
 ! D121  D(15,41,42,44)        179.6373         estimate D2E/DX2                !
 ! D122  D(15,41,42,47)          0.2615         estimate D2E/DX2                !
 ! D123  D(43,41,42,44)         -0.1292         estimate D2E/DX2                !
 ! D124  D(43,41,42,47)       -179.505          estimate D2E/DX2                !
 ! D125  D(15,41,43,45)       -179.6149         estimate D2E/DX2                !
 ! D126  D(15,41,43,48)          0.99           estimate D2E/DX2                !
 ! D127  D(42,41,43,45)          0.1525         estimate D2E/DX2                !
 ! D128  D(42,41,43,48)       -179.2427         estimate D2E/DX2                !
 ! D129  D(41,42,44,46)          0.0348         estimate D2E/DX2                !
 ! D130  D(41,42,44,49)       -179.8356         estimate D2E/DX2                !
 ! D131  D(47,42,44,46)        179.4141         estimate D2E/DX2                !
 ! D132  D(47,42,44,49)         -0.4564         estimate D2E/DX2                !
 ! D133  D(41,43,45,46)         -0.0814         estimate D2E/DX2                !
 ! D134  D(41,43,45,50)       -179.896          estimate D2E/DX2                !
 ! D135  D(48,43,45,46)        179.3146         estimate D2E/DX2                !
 ! D136  D(48,43,45,50)         -0.5            estimate D2E/DX2                !
 ! D137  D(42,44,46,45)          0.0397         estimate D2E/DX2                !
 ! D138  D(42,44,46,51)        179.9742         estimate D2E/DX2                !
 ! D139  D(49,44,46,45)        179.9095         estimate D2E/DX2                !
 ! D140  D(49,44,46,51)         -0.156          estimate D2E/DX2                !
 ! D141  D(43,45,46,44)         -0.0165         estimate D2E/DX2                !
 ! D142  D(43,45,46,51)       -179.951          estimate D2E/DX2                !
 ! D143  D(50,45,46,44)        179.7974         estimate D2E/DX2                !
 ! D144  D(50,45,46,51)         -0.1372         estimate D2E/DX2                !
 --------------------------------------------------------------------------------
 Trust Radius=3.00D-01 FncErr=5.00D-06 GrdErr=5.00D-06 EigMax=2.50D+02 EigMin=1.00D-04
 Number of steps in this run=    303 maximum allowed number of steps=    306.
 GradGradGradGradGradGradGradGradGradGradGradGradGradGradGradGradGradGrad

 Leave Link  103 at Tue Feb  1 12:16:00 2022, MaxMem= 14763950080 cpu:               0.4 elap:               0.0
 (Enter /lustre1/prg/gaussian/bin/G16_C01_Linda_AVX/g16/l202.exe)
 Symmetry turned off by external request.
 Stoichiometry    C27H19BF2N2
 Framework group  C1[X(C27H19BF2N2)]
 Deg. of freedom   147
 Full point group                 C1      NOp   1
                          Input orientation:                          
 ---------------------------------------------------------------------
 Center     Atomic      Atomic             Coordinates (Angstroms)
 Number     Number       Type             X           Y           Z
 ---------------------------------------------------------------------
      1          7           0       12.945495   -9.174412   -0.679183
      2          6           0       14.092112   -9.799842   -0.436560
      3          6           0       14.921122   -8.980550    0.380030
      4          6           0       14.181846   -7.803357    0.627113
      5          6           0       12.955204   -7.921139   -0.037781
      6          6           0       10.550196   -4.933348    0.106292
      7          6           0       10.557751   -3.548462    0.203967
      8          6           0       11.762738   -2.844497    0.255645
      9          6           0       12.964232   -3.551316    0.170888
     10          6           0       12.965839   -4.936211    0.073125
     11          6           0       11.756912   -5.674888    0.074155
     12          6           0       11.753822   -7.118209   -0.027018
     13          6           0       10.550601   -7.918360   -0.006596
     14          6           0        9.341922   -7.798056    0.689929
     15          6           0        8.593491   -8.973265    0.461283
     16          6           0        9.399142   -9.794053   -0.376936
     17          7           0       10.540639   -9.171330   -0.648696
     18          9           0       11.729325  -11.066300   -1.557376
     19          5           0       11.731838   -9.681291   -1.499920
     20          9           0       11.716587   -9.100669   -2.761279
     21          1           0       14.279872  -10.781493   -0.863932
     22          1           0       14.465943   -6.985240    1.280090
     23          1           0        9.596038   -5.447170    0.016440
     24          1           0        9.609417   -3.010424    0.225776
     25          1           0       11.765089   -1.757224    0.333630
     26          1           0       13.914059   -3.015500    0.166440
     27          1           0       13.915973   -5.452313   -0.042773
     28          1           0        9.076724   -6.979521    1.350250
     29          1           0        9.198265  -10.775168   -0.799536
     30          6           0       16.261984   -9.311568    0.841745
     31          6           0       17.047392   -8.354070    1.511655
     32          6           0       16.804937  -10.595026    0.636028
     33          6           0       18.324017   -8.669587    1.960955
     34          6           0       18.081955  -10.907098    1.086208
     35          6           0       18.848294   -9.947157    1.751233
     36          1           0       16.654251   -7.349732    1.671466
     37          1           0       16.216128  -11.358916    0.127430
     38          1           0       18.917216   -7.913511    2.476214
     39          1           0       18.483020  -11.907252    0.919624
     40          1           0       19.850327  -10.193439    2.103589
     41          6           0        7.264162   -9.301392    0.957008
     42          6           0        6.710301  -10.581301    0.758278
     43          6           0        6.501042   -8.344682    1.653369
     44          6           0        5.444286  -10.890665    1.240246
     45          6           0        5.235403   -8.657499    2.134492
     46          6           0        4.700043   -9.931480    1.931050
     47          1           0        7.281854  -11.344612    0.229513
     48          1           0        6.902777   -7.343117    1.809108
     49          1           0        5.034503  -11.888042    1.078327
     50          1           0        4.659458   -7.902060    2.669901
     51          1           0        3.706572  -10.175574    2.308294
 ---------------------------------------------------------------------
 Rotational constants (GHZ):           0.1897419           0.0762903           0.0617891
 Leave Link  202 at Tue Feb  1 12:16:00 2022, MaxMem= 14763950080 cpu:               0.3 elap:               0.0
 (Enter /lustre1/prg/gaussian/bin/G16_C01_Linda_AVX/g16/l301.exe)
 Standard basis: CC-pVDZ (5D, 7F)
 Ernie: Thresh=  0.10000D-02 Tol=  0.10000D-05 Strict=F.
 Ernie:  64 primitive shells out of 799 were deleted.
   543 basis functions,  1189 primitive gaussians,   575 cartesian basis functions
   109 alpha electrons      109 beta electrons
       nuclear repulsion energy      2854.7840603499 Hartrees.
 IExCor= 4336 DFT=T Ex+Corr=M062X ExCW=0 ScaHFX=  0.540000
 ScaDFX=  1.000000  1.000000  1.000000  1.000000 ScalE2=  1.000000  1.000000
 IRadAn=      5 IRanWt=     -1 IRanGd=            0 ICorTp=0 IEmpDi=  4
 NAtoms=   51 NActive=   51 NUniq=   51 SFac= 1.00D+00 NAtFMM=   60 NAOKFM=F Big=F
 Integral buffers will be    131072 words long.
 Regular integral format.
 Two-electron integral symmetry is turned off.
 ------------------------------------------------------------------------------
 Polarizable Continuum Model (PCM)
 =================================
 Model                : C-PCM.
 Atomic radii         : UFF (Universal Force Field).
 Polarization charges : Total charges.
 Charge compensation  : None.
 Solution method      : On-the-fly selection.
 Cavity type          : Scaled VdW (van der Waals Surface) (Alpha=1.100).
 Cavity algorithm     : GePol (No added spheres)
                        Default sphere list used, NSphG=   51.
                        Lebedev-Laikov grids with approx.  5.0 points / Ang**2.
                        Smoothing algorithm: York/Karplus (Gamma=1.0000).
                        Polarization charges: spherical gaussians, with
                                              point-specific exponents (IZeta= 3).
                        Self-potential: point-specific (ISelfS= 7).
                        Self-field    : sphere-specific E.n sum rule (ISelfD= 2).
 1st derivatives      : Analytical E(r).r(x)/FMM algorithm (CHGder, D1EAlg=3).
                        Cavity 1st derivative terms included.
 Solvent              : TetraHydroFuran, Eps=   7.425700 Eps(inf)=   1.974025
 ------------------------------------------------------------------------------
 GePol: Number of generator spheres                  =      51
 GePol: Total number of spheres                      =      51
 GePol: Number of exposed spheres                    =      51 (100.00%)
 GePol: Number of points                             =    3827
 GePol: Average weight of points                     =       0.13
 GePol: Minimum weight of points                     =   0.10D-10
 GePol: Maximum weight of points                     =    0.20577
 GePol: Number of points with low weight             =     281
 GePol: Fraction of low-weight points (<1% of avg)   =       7.34%
 GePol: Cavity surface area                          =    487.858 Ang**2
 GePol: Cavity volume                                =    553.325 Ang**3
 Leave Link  301 at Tue Feb  1 12:16:00 2022, MaxMem= 14763950080 cpu:               2.4 elap:               0.2
@@@@@@@@@@@@@@@@@@@@@@@@@@@@@@@@@@@@@@@@@@@@@@@@@@@@@@@@@@@
@    WARNING: REMOTE HOST IDENTIFICATION HAS CHANGED!     @
@@@@@@@@@@@@@@@@@@@@@@@@@@@@@@@@@@@@@@@@@@@@@@@@@@@@@@@@@@@
IT IS POSSIBLE THAT SOMEONE IS DOING SOMETHING NASTY!
Someone could be eavesdropping on you right now (man-in-the-middle attack)!
It is also possible that a host key has just been changed.
The fingerprint for the ECDSA key sent by the remote host is
SHA256:gLMtyb8m+NL1kS2f3nwxM/kLSsQ5xG2rTSxaheR03F0.
Please contact your system administrator.
Add correct host key in /lustre2/home/toliste/.ssh/known_hosts to get rid of this message.
Offending ECDSA key in /lustre2/home/toliste/.ssh/known_hosts:82
Password authentication is disabled to avoid man-in-the-middle attacks.
Keyboard-interactive authentication is disabled to avoid man-in-the-middle attacks.
Warning: Permanently added 'fizika161.fizika.bullx' (ECDSA) to the list of known hosts.
 (Enter /lustre1/prg/gaussian/bin/G16_C01_Linda_AVX/g16/linda-exe/l302.exel)
 NPDir=0 NMtPBC=     1 NCelOv=     1 NCel=       1 NClECP=     1 NCelD=      1
         NCelK=      1 NCelE2=     1 NClLst=     1 CellRange=     0.0.
 One-electron integrals computed using PRISM.
 NBasis=   543 RedAO= T EigKep=  2.66D-04  NBF=   543
 NBsUse=   543 1.00D-06 EigRej= -1.00D+00 NBFU=   543
 Precomputing XC quadrature grid using
 IXCGrd= 4 IRadAn=           5 IRanWt=          -1 IRanGd=           0 AccXCQ= 0.00D+00.
 Generated NRdTot=       0 NPtTot=           0 NUsed=           0 NTot=          32
 NSgBfM=   557   557   557   557   557 MxSgAt=    51 MxSgA2=    51.
 Leave Link  302 at Tue Feb  1 12:16:05 2022, MaxMem= 14763950080 cpu:              36.9 elap:               2.4
 (Enter /lustre1/prg/gaussian/bin/G16_C01_Linda_AVX/g16/l303.exe)
 DipDrv:  MaxL=1.
 Leave Link  303 at Tue Feb  1 12:16:05 2022, MaxMem= 14763950080 cpu:               3.2 elap:               0.2
 (Enter /lustre1/prg/gaussian/bin/G16_C01_Linda_AVX/g16/l308.exe)
 Leave Link  308 at Tue Feb  1 12:16:06 2022, MaxMem= 14763950080 cpu:               3.4 elap:               0.3
@@@@@@@@@@@@@@@@@@@@@@@@@@@@@@@@@@@@@@@@@@@@@@@@@@@@@@@@@@@
@    WARNING: REMOTE HOST IDENTIFICATION HAS CHANGED!     @
@@@@@@@@@@@@@@@@@@@@@@@@@@@@@@@@@@@@@@@@@@@@@@@@@@@@@@@@@@@
IT IS POSSIBLE THAT SOMEONE IS DOING SOMETHING NASTY!
Someone could be eavesdropping on you right now (man-in-the-middle attack)!
It is also possible that a host key has just been changed.
The fingerprint for the ECDSA key sent by the remote host is
SHA256:gLMtyb8m+NL1kS2f3nwxM/kLSsQ5xG2rTSxaheR03F0.
Please contact your system administrator.
Add correct host key in /lustre2/home/toliste/.ssh/known_hosts to get rid of this message.
Offending ECDSA key in /lustre2/home/toliste/.ssh/known_hosts:82
Password authentication is disabled to avoid man-in-the-middle attacks.
Keyboard-interactive authentication is disabled to avoid man-in-the-middle attacks.
 (Enter /lustre1/prg/gaussian/bin/G16_C01_Linda_AVX/g16/linda-exe/l401.exel)
 ExpMin= 9.54D-02 ExpMax= 1.47D+04 ExpMxC= 5.03D+02 IAcc=3 IRadAn=         5 AccDes= 0.00D+00
 Harris functional with IExCor= 1009 and IRadAn=       5 diagonalized for initial guess.
 HarFok:  IExCor= 1009 AccDes= 0.00D+00 IRadAn=         5 IDoV= 1 UseB2=F ITyADJ=14
 ICtDFT=  3500011 ScaDFX=  1.000000  1.000000  1.000000  1.000000
 FoFCou: FMM=F IPFlag=           0 FMFlag=      100000 FMFlg1=           0
         NFxFlg=           0 DoJE=T BraDBF=F KetDBF=T FulRan=T
         wScrn=  0.000000 ICntrl=       500 IOpCl=  0 I1Cent=   200000004 NGrid=           0
         NMat0=    1 NMatS0=      1 NMatT0=    0 NMatD0=    1 NMtDS0=    0 NMtDT0=    0
 Symmetry not used in FoFCou.
 Harris En= -1373.26771014874    
 JPrj=0 DoOrth=F DoCkMO=F.
 Leave Link  401 at Tue Feb  1 12:16:12 2022, MaxMem= 14763950080 cpu:              74.7 elap:               4.9
@@@@@@@@@@@@@@@@@@@@@@@@@@@@@@@@@@@@@@@@@@@@@@@@@@@@@@@@@@@
@    WARNING: REMOTE HOST IDENTIFICATION HAS CHANGED!     @
@@@@@@@@@@@@@@@@@@@@@@@@@@@@@@@@@@@@@@@@@@@@@@@@@@@@@@@@@@@
IT IS POSSIBLE THAT SOMEONE IS DOING SOMETHING NASTY!
Someone could be eavesdropping on you right now (man-in-the-middle attack)!
It is also possible that a host key has just been changed.
The fingerprint for the ECDSA key sent by the remote host is
SHA256:gLMtyb8m+NL1kS2f3nwxM/kLSsQ5xG2rTSxaheR03F0.
Please contact your system administrator.
Add correct host key in /lustre2/home/toliste/.ssh/known_hosts to get rid of this message.
Offending ECDSA key in /lustre2/home/toliste/.ssh/known_hosts:82
Password authentication is disabled to avoid man-in-the-middle attacks.
Keyboard-interactive authentication is disabled to avoid man-in-the-middle attacks.
 (Enter /lustre1/prg/gaussian/bin/G16_C01_Linda_AVX/g16/linda-exe/l502.exel)
 Two-electron integral symmetry not used.
 Closed shell SCF:
 Using DIIS extrapolation, IDIIS=  1040.
 NGot= 14763950080 LenX= 14763273835 LenY= 14762942635
 Requested convergence on RMS density matrix=1.00D-08 within 128 cycles.
 Requested convergence on MAX density matrix=1.00D-06.
 Requested convergence on             energy=1.00D-06.
 No special actions if energy rises.
 Fock matrices will be formed incrementally for  20 cycles.

 Cycle   1  Pass 1  IDiag  1:
 FoFJK:  IHMeth= 1 ICntrl=       0 DoSepK=F KAlg= 0 I1Cent=           0 FoldK=F
 IRaf= 690000000 NMat=       1 IRICut=       1 DoRegI=T DoRafI=F ISym2E= 0 IDoP0=0 IntGTp=1.
 FoFCou: FMM=F IPFlag=           0 FMFlag=      100000 FMFlg1=           0
         NFxFlg=           0 DoJE=F BraDBF=F KetDBF=F FulRan=T
         wScrn=  0.000000 ICntrl=         0 IOpCl=  0 I1Cent=           0 NGrid=           0
         NMat0=    1 NMatS0=      1 NMatT0=    0 NMatD0=    1 NMtDS0=    0 NMtDT0=    0
 Symmetry not used in FoFCou.
 Inv3:  Mode=1 IEnd=    43937787.
 Iteration    1 A*A^-1 deviation from unit magnitude is 5.55D-15 for   3796.
 Iteration    1 A*A^-1 deviation from orthogonality  is 3.50D-15 for   3820   1322.
 Iteration    1 A^-1*A deviation from unit magnitude is 5.55D-15 for   3803.
 Iteration    1 A^-1*A deviation from orthogonality  is 2.89D-15 for   2645   1137.
 E= -1373.61074915359    
 DIIS: error= 4.36D-02 at cycle   1 NSaved=   1.
 NSaved= 1 IEnMin= 1 EnMin= -1373.61074915359     IErMin= 1 ErrMin= 4.36D-02
 ErrMax= 4.36D-02  0.00D+00 EMaxC= 1.00D-01 BMatC= 5.22D-01 BMatP= 5.22D-01
 IDIUse=3 WtCom= 5.64D-01 WtEn= 4.36D-01
 Coeff-Com:  0.100D+01
 Coeff-En:   0.100D+01
 Coeff:      0.100D+01
 Gap=     0.123 Goal=   None    Shift=    0.000
 GapD=    0.123 DampG=1.000 DampE=0.500 DampFc=0.5000 IDamp=-1.
 Damping current iteration by 5.00D-01
 RMSDP=3.26D-03 MaxDP=9.98D-02              OVMax= 1.61D-01

 Cycle   2  Pass 1  IDiag  1:
 RMSU=  1.53D-03    CP:  9.62D-01
 E= -1373.88470550757     Delta-E=       -0.273956353982 Rises=F Damp=T
 DIIS: error= 8.58D-03 at cycle   2 NSaved=   2.
 NSaved= 2 IEnMin= 2 EnMin= -1373.88470550757     IErMin= 2 ErrMin= 8.58D-03
 ErrMax= 8.58D-03  0.00D+00 EMaxC= 1.00D-01 BMatC= 4.54D-02 BMatP= 5.22D-01
 IDIUse=3 WtCom= 9.14D-01 WtEn= 8.58D-02
 Coeff-Com: -0.129D+00 0.113D+01
 Coeff-En:   0.000D+00 0.100D+01
 Coeff:     -0.118D+00 0.112D+01
 Gap=     0.158 Goal=   None    Shift=    0.000
 RMSDP=1.15D-03 MaxDP=6.86D-02 DE=-2.74D-01 OVMax= 1.02D-01

 Cycle   3  Pass 1  IDiag  1:
 RMSU=  8.42D-04    CP:  9.35D-01  1.44D+00
 E= -1374.12457543231     Delta-E=       -0.239869924737 Rises=F Damp=F
 DIIS: error= 5.69D-03 at cycle   3 NSaved=   3.
 NSaved= 3 IEnMin= 3 EnMin= -1374.12457543231     IErMin= 3 ErrMin= 5.69D-03
 ErrMax= 5.69D-03  0.00D+00 EMaxC= 1.00D-01 BMatC= 2.15D-02 BMatP= 4.54D-02
 IDIUse=3 WtCom= 9.43D-01 WtEn= 5.69D-02
 Coeff-Com: -0.116D+00 0.492D+00 0.624D+00
 Coeff-En:   0.000D+00 0.000D+00 0.100D+01
 Coeff:     -0.110D+00 0.464D+00 0.645D+00
 Gap=     0.132 Goal=   None    Shift=    0.000
 RMSDP=3.75D-04 MaxDP=2.85D-02 DE=-2.40D-01 OVMax= 5.55D-02

 Cycle   4  Pass 1  IDiag  1:
 RMSU=  2.65D-04    CP:  9.37D-01  1.47D+00  6.91D-01
 E= -1374.14141057093     Delta-E=       -0.016835138620 Rises=F Damp=F
 DIIS: error= 2.75D-03 at cycle   4 NSaved=   4.
 NSaved= 4 IEnMin= 4 EnMin= -1374.14141057093     IErMin= 4 ErrMin= 2.75D-03
 ErrMax= 2.75D-03  0.00D+00 EMaxC= 1.00D-01 BMatC= 4.82D-03 BMatP= 2.15D-02
 IDIUse=3 WtCom= 9.73D-01 WtEn= 2.75D-02
 Coeff-Com: -0.399D-01 0.113D+00 0.354D+00 0.572D+00
 Coeff-En:   0.000D+00 0.000D+00 0.180D+00 0.820D+00
 Coeff:     -0.388D-01 0.110D+00 0.349D+00 0.579D+00
 Gap=     0.135 Goal=   None    Shift=    0.000
 RMSDP=1.37D-04 MaxDP=1.02D-02 DE=-1.68D-02 OVMax= 2.13D-02

 Cycle   5  Pass 1  IDiag  1:
 RMSU=  6.41D-05    CP:  9.36D-01  1.48D+00  7.84D-01  6.57D-01
 E= -1374.14615519170     Delta-E=       -0.004744620767 Rises=F Damp=F
 DIIS: error= 3.79D-04 at cycle   5 NSaved=   5.
 NSaved= 5 IEnMin= 5 EnMin= -1374.14615519170     IErMin= 5 ErrMin= 3.79D-04
 ErrMax= 3.79D-04  0.00D+00 EMaxC= 1.00D-01 BMatC= 2.02D-04 BMatP= 4.82D-03
 IDIUse=3 WtCom= 9.96D-01 WtEn= 3.79D-03
 Coeff-Com: -0.903D-02 0.148D-01 0.109D+00 0.257D+00 0.628D+00
 Coeff-En:   0.000D+00 0.000D+00 0.000D+00 0.000D+00 0.100D+01
 Coeff:     -0.900D-02 0.147D-01 0.109D+00 0.256D+00 0.629D+00
 Gap=     0.135 Goal=   None    Shift=    0.000
 RMSDP=3.10D-05 MaxDP=1.77D-03 DE=-4.74D-03 OVMax= 3.60D-03

 Cycle   6  Pass 1  IDiag  1:
 RMSU=  2.21D-05    CP:  9.36D-01  1.48D+00  7.87D-01  6.97D-01  7.17D-01
 E= -1374.14635546233     Delta-E=       -0.000200270636 Rises=F Damp=F
 DIIS: error= 1.28D-04 at cycle   6 NSaved=   6.
 NSaved= 6 IEnMin= 6 EnMin= -1374.14635546233     IErMin= 6 ErrMin= 1.28D-04
 ErrMax= 1.28D-04  0.00D+00 EMaxC= 1.00D-01 BMatC= 1.25D-05 BMatP= 2.02D-04
 IDIUse=3 WtCom= 9.99D-01 WtEn= 1.28D-03
 Coeff-Com: -0.128D-02-0.402D-03 0.215D-01 0.647D-01 0.256D+00 0.660D+00
 Coeff-En:   0.000D+00 0.000D+00 0.000D+00 0.000D+00 0.000D+00 0.100D+01
 Coeff:     -0.128D-02-0.402D-03 0.215D-01 0.646D-01 0.256D+00 0.660D+00
 Gap=     0.136 Goal=   None    Shift=    0.000
 RMSDP=9.00D-06 MaxDP=3.79D-04 DE=-2.00D-04 OVMax= 1.95D-03

 Cycle   7  Pass 1  IDiag  1:
 RMSU=  6.86D-06    CP:  9.36D-01  1.48D+00  7.88D-01  7.00D-01  7.97D-01
                    CP:  8.93D-01
 E= -1374.14637091362     Delta-E=       -0.000015451286 Rises=F Damp=F
 DIIS: error= 3.25D-05 at cycle   7 NSaved=   7.
 NSaved= 7 IEnMin= 7 EnMin= -1374.14637091362     IErMin= 7 ErrMin= 3.25D-05
 ErrMax= 3.25D-05  0.00D+00 EMaxC= 1.00D-01 BMatC= 1.18D-06 BMatP= 1.25D-05
 IDIUse=1 WtCom= 1.00D+00 WtEn= 0.00D+00
 Coeff-Com:  0.696D-03-0.209D-02-0.576D-02-0.818D-02 0.110D-01 0.214D+00
 Coeff-Com:  0.790D+00
 Coeff:      0.696D-03-0.209D-02-0.576D-02-0.818D-02 0.110D-01 0.214D+00
 Coeff:      0.790D+00
 Gap=     0.136 Goal=   None    Shift=    0.000
 RMSDP=3.67D-06 MaxDP=1.18D-04 DE=-1.55D-05 OVMax= 6.25D-04

 Cycle   8  Pass 1  IDiag  1:
 RMSU=  2.42D-06    CP:  9.36D-01  1.48D+00  7.88D-01  7.04D-01  8.11D-01
                    CP:  9.96D-01  1.05D+00
 E= -1374.14637279501     Delta-E=       -0.000001881395 Rises=F Damp=F
 DIIS: error= 1.46D-05 at cycle   8 NSaved=   8.
 NSaved= 8 IEnMin= 8 EnMin= -1374.14637279501     IErMin= 8 ErrMin= 1.46D-05
 ErrMax= 1.46D-05  0.00D+00 EMaxC= 1.00D-01 BMatC= 2.46D-07 BMatP= 1.18D-06
 IDIUse=1 WtCom= 1.00D+00 WtEn= 0.00D+00
 Coeff-Com:  0.594D-03-0.960D-03-0.666D-02-0.157D-01-0.417D-01-0.127D-01
 Coeff-Com:  0.363D+00 0.714D+00
 Coeff:      0.594D-03-0.960D-03-0.666D-02-0.157D-01-0.417D-01-0.127D-01
 Coeff:      0.363D+00 0.714D+00
 Gap=     0.136 Goal=   None    Shift=    0.000
 RMSDP=1.68D-06 MaxDP=9.88D-05 DE=-1.88D-06 OVMax= 4.18D-04

 Cycle   9  Pass 1  IDiag  1:
 RMSU=  8.26D-07    CP:  9.36D-01  1.48D+00  7.89D-01  7.05D-01  8.20D-01
                    CP:  1.03D+00  1.18D+00  8.49D-01
 E= -1374.14637320986     Delta-E=       -0.000000414849 Rises=F Damp=F
 DIIS: error= 3.32D-06 at cycle   9 NSaved=   9.
 NSaved= 9 IEnMin= 9 EnMin= -1374.14637320986     IErMin= 9 ErrMin= 3.32D-06
 ErrMax= 3.32D-06  0.00D+00 EMaxC= 1.00D-01 BMatC= 1.27D-08 BMatP= 2.46D-07
 IDIUse=1 WtCom= 1.00D+00 WtEn= 0.00D+00
 Coeff-Com:  0.110D-03-0.116D-03-0.125D-02-0.336D-02-0.114D-01-0.141D-01
 Coeff-Com:  0.319D-01 0.197D+00 0.801D+00
 Coeff:      0.110D-03-0.116D-03-0.125D-02-0.336D-02-0.114D-01-0.141D-01
 Coeff:      0.319D-01 0.197D+00 0.801D+00
 Gap=     0.136 Goal=   None    Shift=    0.000
 RMSDP=4.60D-07 MaxDP=1.88D-05 DE=-4.15D-07 OVMax= 8.94D-05

 Cycle  10  Pass 1  IDiag  1:
 RMSU=  2.83D-07    CP:  9.36D-01  1.48D+00  7.89D-01  7.05D-01  8.21D-01
                    CP:  1.04D+00  1.20D+00  9.37D-01  1.04D+00
 E= -1374.14637323263     Delta-E=       -0.000000022763 Rises=F Damp=F
 DIIS: error= 1.61D-06 at cycle  10 NSaved=  10.
 NSaved=10 IEnMin=10 EnMin= -1374.14637323263     IErMin=10 ErrMin= 1.61D-06
 ErrMax= 1.61D-06  0.00D+00 EMaxC= 1.00D-01 BMatC= 3.10D-09 BMatP= 1.27D-08
 IDIUse=1 WtCom= 1.00D+00 WtEn= 0.00D+00
 Coeff-Com: -0.336D-04 0.806D-04 0.400D-03 0.790D-03 0.791D-03-0.480D-02
 Coeff-Com: -0.435D-01-0.101D-01 0.363D+00 0.693D+00
 Coeff:     -0.336D-04 0.806D-04 0.400D-03 0.790D-03 0.791D-03-0.480D-02
 Coeff:     -0.435D-01-0.101D-01 0.363D+00 0.693D+00
 Gap=     0.136 Goal=   None    Shift=    0.000
 RMSDP=1.76D-07 MaxDP=8.04D-06 DE=-2.28D-08 OVMax= 4.18D-05

 Cycle  11  Pass 1  IDiag  1:
 RMSU=  1.04D-07    CP:  9.36D-01  1.48D+00  7.89D-01  7.05D-01  8.22D-01
                    CP:  1.05D+00  1.21D+00  9.61D-01  1.16D+00  9.24D-01
 E= -1374.14637323737     Delta-E=       -0.000000004747 Rises=F Damp=F
 DIIS: error= 7.66D-07 at cycle  11 NSaved=  11.
 NSaved=11 IEnMin=11 EnMin= -1374.14637323737     IErMin=11 ErrMin= 7.66D-07
 ErrMax= 7.66D-07  0.00D+00 EMaxC= 1.00D-01 BMatC= 4.21D-10 BMatP= 3.10D-09
 IDIUse=1 WtCom= 1.00D+00 WtEn= 0.00D+00
 Coeff-Com: -0.280D-04 0.495D-04 0.325D-03 0.756D-03 0.170D-02-0.411D-03
 Coeff-Com: -0.243D-01-0.270D-01 0.521D-01 0.318D+00 0.679D+00
 Coeff:     -0.280D-04 0.495D-04 0.325D-03 0.756D-03 0.170D-02-0.411D-03
 Coeff:     -0.243D-01-0.270D-01 0.521D-01 0.318D+00 0.679D+00
 Gap=     0.136 Goal=   None    Shift=    0.000
 RMSDP=6.42D-08 MaxDP=2.52D-06 DE=-4.75D-09 OVMax= 1.23D-05

 Cycle  12  Pass 1  IDiag  1:
 RMSU=  3.63D-08    CP:  9.36D-01  1.48D+00  7.89D-01  7.05D-01  8.22D-01
                    CP:  1.05D+00  1.21D+00  9.68D-01  1.19D+00  1.03D+00
                    CP:  9.17D-01
 E= -1374.14637323789     Delta-E=       -0.000000000523 Rises=F Damp=F
 DIIS: error= 1.63D-07 at cycle  12 NSaved=  12.
 NSaved=12 IEnMin=12 EnMin= -1374.14637323789     IErMin=12 ErrMin= 1.63D-07
 ErrMax= 1.63D-07  0.00D+00 EMaxC= 1.00D-01 BMatC= 3.65D-11 BMatP= 4.21D-10
 IDIUse=1 WtCom= 1.00D+00 WtEn= 0.00D+00
 Coeff-Com: -0.588D-05 0.806D-05 0.714D-04 0.183D-03 0.524D-03 0.472D-03
 Coeff-Com: -0.382D-02-0.606D-02-0.235D-01 0.557D-01 0.255D+00 0.721D+00
 Coeff:     -0.588D-05 0.806D-05 0.714D-04 0.183D-03 0.524D-03 0.472D-03
 Coeff:     -0.382D-02-0.606D-02-0.235D-01 0.557D-01 0.255D+00 0.721D+00
 Gap=     0.136 Goal=   None    Shift=    0.000
 RMSDP=1.76D-08 MaxDP=8.77D-07 DE=-5.23D-10 OVMax= 3.96D-06

 Cycle  13  Pass 1  IDiag  1:
 RMSU=  1.19D-08    CP:  9.36D-01  1.48D+00  7.89D-01  7.05D-01  8.22D-01
                    CP:  1.05D+00  1.21D+00  9.70D-01  1.19D+00  1.05D+00
                    CP:  1.01D+00  9.56D-01
 E= -1374.14637323796     Delta-E=       -0.000000000064 Rises=F Damp=F
 DIIS: error= 6.76D-08 at cycle  13 NSaved=  13.
 NSaved=13 IEnMin=13 EnMin= -1374.14637323796     IErMin=13 ErrMin= 6.76D-08
 ErrMax= 6.76D-08  0.00D+00 EMaxC= 1.00D-01 BMatC= 4.49D-12 BMatP= 3.65D-11
 IDIUse=1 WtCom= 1.00D+00 WtEn= 0.00D+00
 Coeff-Com:  0.188D-05-0.392D-05-0.202D-04-0.445D-04-0.569D-04 0.173D-03
 Coeff-Com:  0.157D-02 0.201D-02-0.174D-01-0.203D-01-0.258D-01 0.184D+00
 Coeff-Com:  0.875D+00
 Coeff:      0.188D-05-0.392D-05-0.202D-04-0.445D-04-0.569D-04 0.173D-03
 Coeff:      0.157D-02 0.201D-02-0.174D-01-0.203D-01-0.258D-01 0.184D+00
 Coeff:      0.875D+00
 Gap=     0.136 Goal=   None    Shift=    0.000
 RMSDP=9.99D-09 MaxDP=3.21D-07 DE=-6.37D-11 OVMax= 2.38D-06

 Error on total polarization charges =  0.01429
 SCF Done:  E(RM062X) =  -1374.14637324     A.U. after   13 cycles
            NFock= 13  Conv=0.10D-07     -V/T= 2.0063
 KE= 1.365529314215D+03 PE=-8.909701838049D+03 EE= 3.315242090246D+03
 Leave Link  502 at Tue Feb  1 12:18:15 2022, MaxMem= 14763950080 cpu:            1840.8 elap:             121.9
 (Enter /lustre1/prg/gaussian/bin/G16_C01_Linda_AVX/g16/l801.exe)
 DoSCS=F DFT=T ScalE2(SS,OS)=  1.000000  1.000000
 ExpMin= 9.54D-02 ExpMax= 1.47D+04 ExpMxC= 5.03D+02 IAcc=3 IRadAn=         5 AccDes= 0.00D+00
 HarFok:  IExCor=  205 AccDes= 0.00D+00 IRadAn=         5 IDoV=-2 UseB2=F ITyADJ=14
 ICtDFT= 12500011 ScaDFX=  1.000000  1.000000  1.000000  1.000000
 GSVD:  LWork=       -1280 too small for GESVD, short by        5600 words or        5600 for optimal perf.
 Largest valence mixing into a core orbital is  7.94D-05
 Largest core mixing into a valence orbital is  5.09D-05
 Range of M.O.s used for correlation:    33   543
 NBasis=   543 NAE=   109 NBE=   109 NFC=    32 NFV=     0
 NROrb=    511 NOA=    77 NOB=    77 NVA=   434 NVB=   434

 **** Warning!!: The largest alpha MO coefficient is  0.12340876D+02

 Leave Link  801 at Tue Feb  1 12:18:16 2022, MaxMem= 14763950080 cpu:               4.9 elap:               0.3
@@@@@@@@@@@@@@@@@@@@@@@@@@@@@@@@@@@@@@@@@@@@@@@@@@@@@@@@@@@
@    WARNING: REMOTE HOST IDENTIFICATION HAS CHANGED!     @
@@@@@@@@@@@@@@@@@@@@@@@@@@@@@@@@@@@@@@@@@@@@@@@@@@@@@@@@@@@
IT IS POSSIBLE THAT SOMEONE IS DOING SOMETHING NASTY!
Someone could be eavesdropping on you right now (man-in-the-middle attack)!
It is also possible that a host key has just been changed.
The fingerprint for the ECDSA key sent by the remote host is
SHA256:gLMtyb8m+NL1kS2f3nwxM/kLSsQ5xG2rTSxaheR03F0.
Please contact your system administrator.
Add correct host key in /lustre2/home/toliste/.ssh/known_hosts to get rid of this message.
Offending ECDSA key in /lustre2/home/toliste/.ssh/known_hosts:82
Password authentication is disabled to avoid man-in-the-middle attacks.
Keyboard-interactive authentication is disabled to avoid man-in-the-middle attacks.
 (Enter /lustre1/prg/gaussian/bin/G16_C01_Linda_AVX/g16/linda-exe/l914.exel)
 RHF ground state
 Two-electron integral symmetry not used.
 MDV= 14763950080 DFT=T DoStab=F Mixed=T DoRPA=T DoScal=F NonHer=T
 NEqPCM:  Using equilibrium solvation (IEInf=0, Eps=   7.4257, EpsInf=   1.9740)
 Making orbital integer symmetry assigments:
    24 initial guesses have been made.
 Convergence on wavefunction:    0.000001000000000
 Davidson Disk Diagonalization:  ConvIn= 1.00D-06 SkipCon=T Conv= 1.00D-06.
 Max sub-space:  2000 roots to seek:    24 dimension of matrix:        66836
 Iteration     1 Dimension    24 NMult     0 NNew     24
 CISAX will form    24 AO SS matrices at one time.
 NMat=    24 NSing=    24 JSym2X= 0.
 FoFJK:  IHMeth= 1 ICntrl=       0 DoSepK=F KAlg= 0 I1Cent=           0 FoldK=F
 IRaf= 690000000 NMat=      48 IRICut=      60 DoRegI=T DoRafI=T ISym2E= 0 IDoP0=3 IntGTp=3.
 FoFCou: FMM=F IPFlag=           0 FMFlag=      100000 FMFlg1=           0
         NFxFlg=           0 DoJE=F BraDBF=F KetDBF=F FulRan=T
         wScrn=  0.000000 ICntrl=         0 IOpCl=  0 I1Cent=           0 NGrid=           0
         NMat0=   48 NMatS0=     24 NMatT0=    0 NMatD0=   48 NMtDS0=    0 NMtDT0=    0
 Symmetry not used in FoFCou.
 Raff kept on since  64.54% of shell-pairs survive, threshold=   0.20 IRatSp=65.
 New state      4 was old state      6
 New state      5 was old state      7
 New state      6 was old state      5
 Excitation Energies [eV] at current iteration:
 Root      1 :     2.117700634610581
 Root      2 :     3.055531848696201
 Root      3 :     3.406769243232473
 Root      4 :     3.744926884810851
 Root      5 :     4.202607272245343
 Root      6 :     4.285084295464096
 Root      7 :     4.290462148409692
 Root      8 :     4.950798304285808
 Root      9 :     5.110371767208681
 Root     10 :     5.152868033776241
 Root     11 :     5.414376118901310
 Root     12 :     5.451218251193755
 Root     13 :     5.476522960084216
 Root     14 :     5.867871975799171
 Root     15 :     5.893188986315359
 Root     16 :     6.136469024833398
 Root     17 :     6.262325895544261
 Root     18 :     6.302102690934111
 Root     19 :     6.348610455900249
 Root     20 :     6.422147062252844
 Root     21 :     6.451326325699600
 Root     22 :     6.490422674719100
 Root     23 :     6.610822041345735
 Root     24 :     6.951228399338923
 Iteration     2 Dimension    36 NMult    24 NNew     12
 CISAX will form    12 AO SS matrices at one time.
 NMat=    12 NSing=    12 JSym2X= 0.
 Root      1 not converged, maximum delta is    0.078181593519767
 Root      2 not converged, maximum delta is    0.061094640053911
 Root      3 not converged, maximum delta is    0.045655503576888
 Root      4 not converged, maximum delta is    0.061863461221846
 Root      5 not converged, maximum delta is    0.057395464318308
 Root      6 not converged, maximum delta is    0.027194521022466
 Excitation Energies [eV] at current iteration:
 Root      1 :     1.796482761293696   Change is   -0.321217873316885
 Root      2 :     2.770962465162337   Change is   -0.284569383533864
 Root      3 :     3.064648193367649   Change is   -0.342121049864825
 Root      4 :     3.397528918147631   Change is   -0.347397966663220
 Root      5 :     3.887190486796440   Change is   -0.315416785448903
 Root      6 :     4.245682666349345   Change is   -0.039401629114751
 Iteration     3 Dimension    48 NMult    36 NNew     12
 CISAX will form    12 AO SS matrices at one time.
 NMat=    12 NSing=    12 JSym2X= 0.
 Root      1 not converged, maximum delta is    0.011815030595800
 Root      2 not converged, maximum delta is    0.007971212686810
 Root      3 not converged, maximum delta is    0.009121086162491
 Root      4 not converged, maximum delta is    0.010841668785542
 Root      5 not converged, maximum delta is    0.031928436916509
 Root      6 not converged, maximum delta is    0.018317809161333
 Excitation Energies [eV] at current iteration:
 Root      1 :     1.777438991401353   Change is   -0.019043769892342
 Root      2 :     2.756331110829455   Change is   -0.014631354332881
 Root      3 :     3.051299544848062   Change is   -0.013348648519587
 Root      4 :     3.382256616018133   Change is   -0.015272302129497
 Root      5 :     3.857113696722159   Change is   -0.030076790074281
 Root      6 :     4.239274748073925   Change is   -0.006407918275421
 Iteration     4 Dimension    60 NMult    48 NNew     12
 CISAX will form    12 AO SS matrices at one time.
 NMat=    12 NSing=    12 JSym2X= 0.
 Root      1 not converged, maximum delta is    0.004271240037410
 Root      2 not converged, maximum delta is    0.003114391352029
 Root      3 not converged, maximum delta is    0.002535060874217
 Root      4 not converged, maximum delta is    0.005524838296496
 Root      5 not converged, maximum delta is    0.005444027674530
 Root      6 not converged, maximum delta is    0.008389331113889
 Excitation Energies [eV] at current iteration:
 Root      1 :     1.775406367490361   Change is   -0.002032623910993
 Root      2 :     2.753849885767713   Change is   -0.002481225061743
 Root      3 :     3.049918870201913   Change is   -0.001380674646149
 Root      4 :     3.379617705933959   Change is   -0.002638910084175
 Root      5 :     3.854649883033237   Change is   -0.002463813688922
 Root      6 :     4.237845748913543   Change is   -0.001428999160381
 Iteration     5 Dimension    72 NMult    60 NNew     12
 CISAX will form    12 AO SS matrices at one time.
 NMat=    12 NSing=    12 JSym2X= 0.
 Root      1 not converged, maximum delta is    0.000844673189107
 Root      2 not converged, maximum delta is    0.000697040565709
 Root      3 not converged, maximum delta is    0.001179844664347
 Root      4 not converged, maximum delta is    0.000920956927279
 Root      5 not converged, maximum delta is    0.001400902366205
 Root      6 not converged, maximum delta is    0.000862639076784
 Excitation Energies [eV] at current iteration:
 Root      1 :     1.775295734375058   Change is   -0.000110633115302
 Root      2 :     2.753701180091702   Change is   -0.000148705676011
 Root      3 :     3.049797430464918   Change is   -0.000121439736995
 Root      4 :     3.379386991045004   Change is   -0.000230714888955
 Root      5 :     3.854446687192700   Change is   -0.000203195840537
 Root      6 :     4.237761743381509   Change is   -0.000084005532034
 Iteration     6 Dimension    84 NMult    72 NNew     12
 CISAX will form    12 AO SS matrices at one time.
 NMat=    12 NSing=    12 JSym2X= 0.
 Root      1 not converged, maximum delta is    0.000158254320638
 Root      2 not converged, maximum delta is    0.000310987881090
 Root      3 not converged, maximum delta is    0.000335636849653
 Root      4 not converged, maximum delta is    0.000409816978804
 Root      5 not converged, maximum delta is    0.000149524307355
 Root      6 not converged, maximum delta is    0.000753449783593
 Excitation Energies [eV] at current iteration:
 Root      1 :     1.775289295341316   Change is   -0.000006439033742
 Root      2 :     2.753686956076511   Change is   -0.000014224015191
 Root      3 :     3.049788308872007   Change is   -0.000009121592911
 Root      4 :     3.379360424198191   Change is   -0.000026566846813
 Root      5 :     3.854437894399195   Change is   -0.000008792793505
 Root      6 :     4.237755105193448   Change is   -0.000006638188062
 Iteration     7 Dimension    96 NMult    84 NNew     12
 CISAX will form    12 AO SS matrices at one time.
 NMat=    12 NSing=    12 JSym2X= 0.
 Root      1 not converged, maximum delta is    0.000023167718712
 Root      2 not converged, maximum delta is    0.000083648028560
 Root      3 not converged, maximum delta is    0.000052341370077
 Root      4 not converged, maximum delta is    0.000195460504382
 Root      5 not converged, maximum delta is    0.000053429383328
 Root      6 not converged, maximum delta is    0.001502572703514
 Excitation Energies [eV] at current iteration:
 Root      1 :     1.775288995615271   Change is   -0.000000299726046
 Root      2 :     2.753685734182204   Change is   -0.000001221894308
 Root      3 :     3.049787806514218   Change is   -0.000000502357788
 Root      4 :     3.379357363422451   Change is   -0.000003060775740
 Root      5 :     3.854437400517670   Change is   -0.000000493881526
 Root      6 :     4.237753939601371   Change is   -0.000001165592077
 Iteration     8 Dimension   108 NMult    96 NNew     12
 CISAX will form    12 AO SS matrices at one time.
 NMat=    12 NSing=    12 JSym2X= 0.
 Root      1 not converged, maximum delta is    0.000006888049966
 Root      2 not converged, maximum delta is    0.000018231395432
 Root      3 not converged, maximum delta is    0.000011988078501
 Root      4 not converged, maximum delta is    0.000040371942148
 Root      5 not converged, maximum delta is    0.000010218783670
 Root      6 not converged, maximum delta is    0.007728829618948
 Excitation Energies [eV] at current iteration:
 Root      1 :     1.775288982227722   Change is   -0.000000013387549
 Root      2 :     2.753685634526366   Change is   -0.000000099655838
 Root      3 :     3.049787787645364   Change is   -0.000000018868854
 Root      4 :     3.379357012678962   Change is   -0.000000350743489
 Root      5 :     3.854437374624132   Change is   -0.000000025893537
 Root      6 :     4.237752082734958   Change is   -0.000001856866413
 Iteration     9 Dimension   120 NMult   108 NNew     12
 CISAX will form    12 AO SS matrices at one time.
 NMat=    12 NSing=    12 JSym2X= 0.
 Root      1 has converged.
 Root      2 not converged, maximum delta is    0.000004190096251
 Root      3 not converged, maximum delta is    0.000002212709803
 Root      4 not converged, maximum delta is    0.000010240967482
 Root      5 not converged, maximum delta is    0.000002629362902
 Root      6 not converged, maximum delta is    0.497574149503288
 Excitation Energies [eV] at current iteration:
 Root      1 :     1.775288981517241   Change is   -0.000000000710481
 Root      2 :     2.753685629967328   Change is   -0.000000004559038
 Root      3 :     3.049787786577050   Change is   -0.000000001068314
 Root      4 :     3.379356986682433   Change is   -0.000000025996530
 Root      5 :     3.854437373166404   Change is   -0.000000001457728
 Root      6 :     4.237493337478692   Change is   -0.000258745256266
 Iteration    10 Dimension   130 NMult   120 NNew     10
 CISAX will form    10 AO SS matrices at one time.
 NMat=    10 NSing=    10 JSym2X= 0.
 Root      1 has converged.
 Root      2 has converged.
 Root      3 has converged.
 Root      4 not converged, maximum delta is    0.000002062895124
 Root      5 has converged.
 Root      6 not converged, maximum delta is    0.190241310812904
 Excitation Energies [eV] at current iteration:
 Root      1 :     1.775288981509044   Change is   -0.000000000008196
 Root      2 :     2.753685629667090   Change is   -0.000000000300238
 Root      3 :     3.049787786511199   Change is   -0.000000000065851
 Root      4 :     3.379356984992041   Change is   -0.000000001690391
 Root      5 :     3.854437373085209   Change is   -0.000000000081196
 Root      6 :     4.236909783812298   Change is   -0.000583553666393
 Iteration    11 Dimension   134 NMult   130 NNew      4
 CISAX will form     4 AO SS matrices at one time.
 NMat=     4 NSing=     4 JSym2X= 0.
 Root      1 has converged.
 Root      2 has converged.
 Root      3 has converged.
 Root      4 has converged.
 Root      5 has converged.
 Root      6 not converged, maximum delta is    0.006211145485747
 Excitation Energies [eV] at current iteration:
 Root      1 :     1.775288981504599   Change is   -0.000000000004446
 Root      2 :     2.753685629666314   Change is   -0.000000000000776
 Root      3 :     3.049787786511091   Change is   -0.000000000000108
 Root      4 :     3.379356984879264   Change is   -0.000000000112777
 Root      5 :     3.854437373083545   Change is   -0.000000000001664
 Root      6 :     4.236847866664649   Change is   -0.000061917147650
 Iteration    12 Dimension   136 NMult   134 NNew      2
 CISAX will form     2 AO SS matrices at one time.
 NMat=     2 NSing=     2 JSym2X= 0.
 Root      1 has converged.
 Root      2 has converged.
 Root      3 has converged.
 Root      4 has converged.
 Root      5 has converged.
 Root      6 not converged, maximum delta is    0.000659875162131
 Excitation Energies [eV] at current iteration:
 Root      1 :     1.775288981503210   Change is   -0.000000000001389
 Root      2 :     2.753685629666075   Change is   -0.000000000000239
 Root      3 :     3.049787786510983   Change is   -0.000000000000108
 Root      4 :     3.379356984878607   Change is   -0.000000000000657
 Root      5 :     3.854437373083055   Change is   -0.000000000000490
 Root      6 :     4.236841086542488   Change is   -0.000006780122162
 Iteration    13 Dimension   138 NMult   136 NNew      2
 CISAX will form     2 AO SS matrices at one time.
 NMat=     2 NSing=     2 JSym2X= 0.
 Root      1 has converged.
 Root      2 has converged.
 Root      3 has converged.
 Root      4 has converged.
 Root      5 has converged.
 Root      6 not converged, maximum delta is    0.000078139638622
 Excitation Energies [eV] at current iteration:
 Root      1 :     1.775288981503210   Change is    0.000000000000000
 Root      2 :     2.753685629665568   Change is   -0.000000000000508
 Root      3 :     3.049787786510848   Change is   -0.000000000000135
 Root      4 :     3.379356984878485   Change is   -0.000000000000122
 Root      5 :     3.854437373082969   Change is   -0.000000000000085
 Root      6 :     4.236840509444454   Change is   -0.000000577098034
 Iteration    14 Dimension   140 NMult   138 NNew      2
 CISAX will form     2 AO SS matrices at one time.
 NMat=     2 NSing=     2 JSym2X= 0.
 Root      1 has converged.
 Root      2 has converged.
 Root      3 has converged.
 Root      4 has converged.
 Root      5 has converged.
 Root      6 not converged, maximum delta is    0.000016798709772
 Excitation Energies [eV] at current iteration:
 Root      1 :     1.775288981501728   Change is   -0.000000000001482
 Root      2 :     2.753685629665269   Change is   -0.000000000000299
 Root      3 :     3.049787786510822   Change is   -0.000000000000027
 Root      4 :     3.379356984878315   Change is   -0.000000000000170
 Root      5 :     3.854437373082820   Change is   -0.000000000000150
 Root      6 :     4.236840465332786   Change is   -0.000000044111668
 Iteration    15 Dimension   142 NMult   140 NNew      2
[...]
 Alpha virt. eigenvalues --    1.36078   1.37177   1.37275   1.38017   1.39359
 Alpha virt. eigenvalues --    1.40124   1.40197   1.41540   1.43078   1.43622
 Alpha virt. eigenvalues --    1.43626   1.45607   1.45640   1.46757   1.48737
 Alpha virt. eigenvalues --    1.49025   1.49864   1.50574   1.50646   1.51122
 Alpha virt. eigenvalues --    1.51838   1.51931   1.52695   1.52838   1.53149
 Alpha virt. eigenvalues --    1.53835   1.54649   1.54759   1.55599   1.55755
 Alpha virt. eigenvalues --    1.56353   1.56755   1.57511   1.58710   1.59752
 Alpha virt. eigenvalues --    1.59830   1.60974   1.61660   1.62192   1.63522
 Alpha virt. eigenvalues --    1.63860   1.63932   1.64490   1.64667   1.64706
 Alpha virt. eigenvalues --    1.64754   1.65032   1.65725   1.66129   1.66161
 Alpha virt. eigenvalues --    1.66585   1.66959   1.67318   1.67801   1.68206
 Alpha virt. eigenvalues --    1.69083   1.69628   1.69882   1.70245   1.70763
 Alpha virt. eigenvalues --    1.71001   1.71360   1.72105   1.72357   1.73820
 Alpha virt. eigenvalues --    1.74594   1.74844   1.75531   1.75973   1.76941
 Alpha virt. eigenvalues --    1.77102   1.77501   1.78092   1.78569   1.79006
 Alpha virt. eigenvalues --    1.79329   1.80334   1.80647   1.81061   1.81527
 Alpha virt. eigenvalues --    1.82177   1.83248   1.83878   1.83960   1.84699
 Alpha virt. eigenvalues --    1.84804   1.85142   1.86210   1.86366   1.87601
 Alpha virt. eigenvalues --    1.88059   1.88259   1.88648   1.88698   1.89066
 Alpha virt. eigenvalues --    1.89352   1.89487   1.90007   1.90491   1.90973
 Alpha virt. eigenvalues --    1.92496   1.93101   1.93311   1.93929   1.94166
 Alpha virt. eigenvalues --    1.95157   1.97072   1.97730   1.98273   1.98325
 Alpha virt. eigenvalues --    1.99910   2.00423   2.00430   2.01307   2.02623
 Alpha virt. eigenvalues --    2.02865   2.03402   2.03678   2.03685   2.04469
 Alpha virt. eigenvalues --    2.04864   2.06523   2.08051   2.09843   2.10675
 Alpha virt. eigenvalues --    2.11906   2.14183   2.14565   2.15131   2.16553
 Alpha virt. eigenvalues --    2.16943   2.17812   2.19478   2.21483   2.23050
 Alpha virt. eigenvalues --    2.23069   2.24506   2.24642   2.26591   2.30083
 Alpha virt. eigenvalues --    2.31051   2.31799   2.32114   2.32171   2.33782
 Alpha virt. eigenvalues --    2.35463   2.35544   2.38665   2.39575   2.40071
 Alpha virt. eigenvalues --    2.40145   2.40720   2.41290   2.43548   2.43914
 Alpha virt. eigenvalues --    2.44697   2.45703   2.46381   2.46756   2.46956
 Alpha virt. eigenvalues --    2.47756   2.48660   2.49662   2.49932   2.51417
 Alpha virt. eigenvalues --    2.52300   2.53586   2.55170   2.58491   2.63192
 Alpha virt. eigenvalues --    2.65399   2.66530   2.66879   2.68649   2.70251
 Alpha virt. eigenvalues --    2.71776   2.72126   2.72876   2.73577   2.73589
 Alpha virt. eigenvalues --    2.74190   2.77785   2.83054   2.83571   2.85276
 Alpha virt. eigenvalues --    2.88242   2.88935   2.89458   2.93478   2.93645
 Alpha virt. eigenvalues --    2.97158   2.98888   3.10097   3.11683   3.14944
 Alpha virt. eigenvalues --    3.15486   3.55911   3.59657   3.59721   3.68537
 Alpha virt. eigenvalues --    3.68718   3.72061   3.74678   3.77029   3.89301
 Alpha virt. eigenvalues --    4.04410   4.07746   4.12199   4.14621
          Condensed to atoms (all electrons):
 Mulliken charges:
               1
     1  N   -0.168205
     2  C    0.101630
     3  C   -0.037985
     4  C   -0.094933
     5  C    0.114488
     6  C   -0.016780
     7  C    0.013742
     8  C    0.031122
     9  C    0.013734
    10  C   -0.016811
    11  C    0.006889
    12  C    0.064220
    13  C    0.114550
    14  C   -0.095076
    15  C   -0.038022
    16  C    0.101581
    17  N   -0.168232
    18  F   -0.231050
    19  B    0.193435
    20  F   -0.225074
    21  H    0.055749
    22  H    0.032383
    23  H    0.029450
    24  H    0.030668
    25  H    0.034631
    26  H    0.030678
    27  H    0.029533
    28  H    0.032434
    29  H    0.055741
    30  C    0.020060
    31  C   -0.044365
    32  C   -0.045908
    33  C    0.010839
    34  C    0.010324
    35  C   -0.008871
    36  H    0.006403
    37  H    0.007988
    38  H    0.015584
    39  H    0.016315
    40  H    0.014397
    41  C    0.020138
    42  C   -0.046024
    43  C   -0.044414
    44  C    0.010359
    45  C    0.010856
    46  C   -0.008868
    47  H    0.007998
    48  H    0.006409
    49  H    0.016311
    50  H    0.015583
    51  H    0.014393
 Sum of Mulliken charges =  -0.00000
 Mulliken charges with hydrogens summed into heavy atoms:
               1
     1  N   -0.168205
     2  C    0.157379
     3  C   -0.037985
     4  C   -0.062550
     5  C    0.114488
     6  C    0.012670
     7  C    0.044410
     8  C    0.065753
     9  C    0.044412
    10  C    0.012722
    11  C    0.006889
    12  C    0.064220
    13  C    0.114550
    14  C   -0.062642
    15  C   -0.038022
    16  C    0.157322
    17  N   -0.168232
    18  F   -0.231050
    19  B    0.193435
    20  F   -0.225074
    30  C    0.020060
    31  C   -0.037962
    32  C   -0.037920
    33  C    0.026423
    34  C    0.026639
    35  C    0.005527
    41  C    0.020138
    42  C   -0.038026
    43  C   -0.038006
    44  C    0.026670
    45  C    0.026439
    46  C    0.005526
 Electronic spatial extent (au):  <R**2>=         178804.1813
 Charge=              0.0000 electrons
 Dipole moment (field-independent basis, Debye):
    X=              0.0674    Y=              6.4799    Z=              4.3555  Tot=              7.8079
 Quadrupole moment (field-independent basis, Debye-Ang):
   XX=           -153.5229   YY=           -252.8185   ZZ=           -197.7055
   XY=             75.6771   XZ=             50.6404   YZ=            -31.7623
 Traceless Quadrupole moment (field-independent basis, Debye-Ang):
   XX=             47.8261   YY=            -51.4696   ZZ=              3.6435
   XY=             75.6771   XZ=             50.6404   YZ=            -31.7623
 Octapole moment (field-independent basis, Debye-Ang**2):
  XXX=          -5440.2554  YYY=           5085.3069  ZZZ=           -205.5488  XYY=          -2968.3450
  XXY=           2136.4763  XXZ=            605.9930  XZZ=          -2326.7540  YZZ=           1655.0244
  YYZ=            170.9004  XYZ=           -368.4272
 Hexadecapole moment (field-independent basis, Debye-Ang**3):
 XXXX=        -143195.8462 YYYY=         -83705.2698 ZZZZ=          -1691.7620 XXXY=          54493.1252
 XXXZ=           7532.0634 YYYX=          59758.8058 YYYZ=            -90.9612 ZZZX=          -2323.5526
 ZZZY=           1765.0786 XXYY=         -48163.1606 XXZZ=         -30364.4282 YYZZ=         -15162.1012
 XXYZ=          -4338.9966 YYXZ=           1990.0416 ZZXY=          19477.4520
 N-N= 2.853289450177D+03 E-N=-8.906673928179D+03  KE= 1.365498452866D+03

 **********************************************************************

            Population analysis using the CI Rho(1) Density.

 **********************************************************************

          Condensed to atoms (all electrons):
 Mulliken charges:
               1
     1  N   -0.153637
     2  C    0.120429
     3  C    0.049804
     4  C   -0.169072
     5  C    0.229476
     6  C   -0.072345
     7  C    0.012054
     8  C   -0.028057
     9  C    0.012047
    10  C   -0.072347
    11  C   -0.001821
    12  C   -0.229994
    13  C    0.229693
    14  C   -0.169177
    15  C    0.049864
    16  C    0.120545
    17  N   -0.153645
    18  F   -0.231412
    19  B    0.189631
    20  F   -0.224795
    21  H    0.055535
    22  H    0.031504
    23  H    0.027222
    24  H    0.030640
    25  H    0.034121
    26  H    0.030649
    27  H    0.027311
    28  H    0.031560
    29  H    0.055527
    30  C    0.033227
    31  C   -0.026026
    32  C   -0.024585
    33  C    0.013363
    34  C    0.011155
    35  C    0.016450
    36  H    0.006309
    37  H    0.007952
    38  H    0.015580
    39  H    0.016311
    40  H    0.014532
    41  C    0.033337
    42  C   -0.024656
    43  C   -0.026039
    44  C    0.011187
    45  C    0.013384
    46  C    0.016510
    47  H    0.007965
    48  H    0.006317
    49  H    0.016306
    50  H    0.015579
    51  H    0.014528
 Sum of Mulliken charges =  -0.00000
 Mulliken charges with hydrogens summed into heavy atoms:
               1
     1  N   -0.153637
     2  C    0.175964
     3  C    0.049804
     4  C   -0.137568
     5  C    0.229476
     6  C   -0.045123
     7  C    0.042695
     8  C    0.006064
     9  C    0.042696
    10  C   -0.045035
    11  C   -0.001821
    12  C   -0.229994
    13  C    0.229693
    14  C   -0.137617
    15  C    0.049864
    16  C    0.176072
    17  N   -0.153645
    18  F   -0.231412
    19  B    0.189631
    20  F   -0.224795
    30  C    0.033227
    31  C   -0.019717
    32  C   -0.016633
    33  C    0.028943
    34  C    0.027466
    35  C    0.030982
    41  C    0.033337
    42  C   -0.016691
    43  C   -0.019721
    44  C    0.027493
    45  C    0.028964
    46  C    0.031038
 Electronic spatial extent (au):  <R**2>=         178701.3569
 Charge=              0.0000 electrons
 Dipole moment (field-independent basis, Debye):
    X=              0.0565    Y=             -0.7135    Z=              4.9755  Tot=              5.0267
 Quadrupole moment (field-independent basis, Debye-Ang):
   XX=           -120.3189   YY=           -148.7393   ZZ=           -196.6864
   XY=             -8.8554   XZ=             57.5048   YZ=            -39.5480
 Traceless Quadrupole moment (field-independent basis, Debye-Ang):
   XX=             34.9293   YY=              6.5089   ZZ=            -41.4382
   XY=             -8.8554   XZ=             57.5048   YZ=            -39.5480
 Octapole moment (field-independent basis, Debye-Ang**2):
  XXX=          -4263.9588  YYY=           3896.8595  ZZZ=           -202.1749  XYY=          -1744.5546
  XXY=            814.9781  XXZ=            720.0878  XZZ=          -2315.7359  YZZ=           1640.0576
  YYZ=            257.2040  XYZ=           -455.8942
 Hexadecapole moment (field-independent basis, Debye-Ang**3):
 XXXX=        -114302.1000 YYYY=         -71185.3773 ZZZZ=          -1684.0439 XXXY=          31238.6914
 XXXZ=           9704.3194 YYYX=          45780.2825 YYYZ=          -1006.8698 ZZZX=          -2286.8144
 ZZZY=           1729.0272 XXYY=         -30570.7661 XXZZ=         -30168.2580 YYZZ=         -14990.6058
 XXYZ=          -5697.1976 YYXZ=           2965.7007 ZZXY=          19310.8417
 N-N= 2.853289450177D+03 E-N=-8.906813003931D+03  KE= 1.365533800199D+03

 **********************************************************************

            Population analysis using the CI Density.

 **********************************************************************

          Condensed to atoms (all electrons):
 Mulliken charges:
               1
     1  N   -0.165575
     2  C    0.108684
     3  C   -0.018861
     4  C   -0.107298
     5  C    0.136583
     6  C   -0.047243
     7  C    0.009927
     8  C   -0.000447
     9  C    0.009924
    10  C   -0.047238
    11  C    0.023332
    12  C    0.002692
    13  C    0.136700
    14  C   -0.107410
    15  C   -0.018887
    16  C    0.108717
    17  N   -0.165604
    18  F   -0.230124
    19  B    0.193574
    20  F   -0.223295
    21  H    0.058009
    22  H    0.027515
    23  H    0.011414
    24  H    0.018592
    25  H    0.018102
    26  H    0.018602
    27  H    0.011503
    28  H    0.027591
    29  H    0.058029
    30  C    0.015590
    31  C   -0.031308
    32  C   -0.032290
    33  C    0.013395
    34  C    0.011841
    35  C    0.004376
    36  H    0.014548
    37  H    0.015054
    38  H    0.021325
    39  H    0.021632
    40  H    0.022007
    41  C    0.015675
    42  C   -0.032383
    43  C   -0.031329
    44  C    0.011883
    45  C    0.013418
    46  C    0.004414
    47  H    0.015084
    48  H    0.014569
    49  H    0.021638
    50  H    0.021336
    51  H    0.022019
 Sum of Mulliken charges =  -0.00000
 Mulliken charges with hydrogens summed into heavy atoms:
               1
     1  N   -0.165575
     2  C    0.166693
     3  C   -0.018861
     4  C   -0.079783
     5  C    0.136583
     6  C   -0.035828
     7  C    0.028519
     8  C    0.017655
     9  C    0.028526
    10  C   -0.035735
    11  C    0.023332
    12  C    0.002692
    13  C    0.136700
    14  C   -0.079818
    15  C   -0.018887
    16  C    0.166745
    17  N   -0.165604
    18  F   -0.230124
    19  B    0.193574
    20  F   -0.223295
    30  C    0.015590
    31  C   -0.016760
    32  C   -0.017236
    33  C    0.034720
    34  C    0.033473
    35  C    0.026382
    41  C    0.015675
    42  C   -0.017299
    43  C   -0.016760
    44  C    0.033521
    45  C    0.034754
    46  C    0.026434
 Electronic spatial extent (au):  <R**2>=         178729.2568
 Charge=             -0.0000 electrons
 Dipole moment (field-independent basis, Debye):
    X=              0.0621    Y=              1.3346    Z=              5.0606  Tot=              5.2340
 Quadrupole moment (field-independent basis, Debye-Ang):
   XX=           -125.6343   YY=           -181.4751   ZZ=           -196.1614
   XY=             15.1853   XZ=             58.5818   YZ=            -39.5837
 Traceless Quadrupole moment (field-independent basis, Debye-Ang):
   XX=             42.1226   YY=            -13.7182   ZZ=            -28.4045
   XY=             15.1853   XZ=             58.5818   YZ=            -39.5837
 Octapole moment (field-independent basis, Debye-Ang**2):
  XXX=          -4453.4966  YYY=           4277.5596  ZZZ=           -200.6931  XYY=          -2129.1960
  XXY=           1143.8089  XXZ=            738.4815  XZZ=          -2309.6832  YZZ=           1635.7136
  YYZ=            251.8269  XYZ=           -456.9800
 Hexadecapole moment (field-independent basis, Debye-Ang**3):
 XXXX=        -118643.0987 YYYY=         -75060.0114 ZZZZ=          -1677.2094 XXXY=          36194.2225
 XXXZ=          10043.9237 YYYX=          50255.0246 YYYZ=           -919.5957 ZZZX=          -2270.2639
 ZZZY=           1716.8473 XXYY=         -35476.0842 XXZZ=         -30074.7568 YYZZ=         -14956.2060
 XXYZ=          -5754.0622 YYXZ=           2908.0932 ZZXY=          19260.6227
 N-N= 2.853289450177D+03 E-N=-8.906841554943D+03  KE= 1.365566893280D+03
 No NMR shielding tensors so no spin-rotation constants.
 Leave Link  601 at Tue Feb  1 16:17:51 2022, MaxMem= 14763950080 cpu:              11.0 elap:               0.9
 (Enter /lustre1/prg/gaussian/bin/G16_C01_Linda_AVX/g16/l9999.exe)
 Electronic transition elements 
                 1             2             3             4             5 
      1  -0.137408D+04 -0.137405D+04 -0.137403D+04 -0.137402D+04 -0.137401D+04
      2   0.338713D+01  0.175994D-02  0.122418D+01 -0.665577D-03 -0.692500D+00
      3  -0.333461D-02  0.244449D+01 -0.219046D-02  0.199159D+01 -0.276056D-03
      4  -0.433867D-01 -0.106739D+00 -0.156241D-01 -0.132601D+00  0.983983D-02
      5  -0.227357D+00 -0.157384D-03 -0.142631D+00  0.127955D-03  0.105838D+00
      6   0.221448D-03 -0.251662D+00  0.251415D-03 -0.251561D+00  0.308055D-04
      7   0.292457D-02  0.123757D-01  0.180498D-02  0.198659D-01 -0.150028D-02
      8  -0.380518D-01 -0.202076D+00 -0.315067D-01 -0.487057D+00  0.831666D-02
      9  -0.230321D+00 -0.274084D+00  0.248013D+00 -0.441191D+00  0.108245D+00
     10  -0.291659D+01 -0.559204D+01 -0.249094D+01 -0.558364D+01  0.581019D+00
     11  -0.101060D+02  0.198706D+01 -0.633799D+01  0.739193D+00  0.470297D+01
     12  -0.856059D-02  0.658877D+01 -0.819263D-02  0.586674D+01 -0.822777D-03
     13   0.906985D-02  0.142725D+00  0.165096D-02  0.505183D-01 -0.851424D-03
     14   0.407532D+01 -0.559224D+01  0.234719D+01 -0.559315D+01 -0.111637D+01
     15  -0.282310D+00  0.251044D+00 -0.276852D-01  0.432875D+00 -0.289315D-02
     16  -0.519067D-01 -0.300484D+00 -0.294748D-01 -0.364704D+00  0.156724D-01
                 6 
      1  -0.137399D+04
      2   0.223750D-02
      3   0.132856D+00
      4   0.630627D-01
      5  -0.698477D-03
      6  -0.221618D-01
      7  -0.130632D-01
      8   0.373822D+00
      9   0.303500D+00
     10  -0.544078D+00
     11   0.124988D+00
     12   0.102852D+01
     13  -0.412151D-01
     14  -0.513539D+00
     15  -0.300645D+00
     16   0.160818D+00
 Unable to Open any file for archive entry.
 1\1\VILNIUS-FIZIKA110\FOpt\RM062X TD-FC\CC-pVDZ\C27H19B1F2N2\TOLISTE\0
 1-Feb-2022\0\\#p m062x cc-pvdz scrf=(cpcm,solvent=TetraHydroFuran) td=
 (nstate=6,root=1) opt=tight nosymm density=all int=ultrafine fchk\\BDP
 -PP-phenyl, optimized R1 in toluene\\0,1\N,12.9473992273,-9.1988591543
 ,-0.6454975581\C,14.1027249773,-9.8129329763,-0.4155391512\C,14.937040
 7331,-8.9809173145,0.3856540456\C,14.1932812597,-7.8097329768,0.635138
 3278\C,12.956199929,-7.9398574044,-0.0130823209\C,10.5515648394,-4.950
 7216849,0.1247714991\C,10.5587850163,-3.5644578315,0.2137169666\C,11.7
 63428076,-2.8598666308,0.259854524\C,12.9644119158,-3.5676854935,0.179
 2392209\C,12.9653874291,-4.9539602725,0.0902379539\C,11.7572959649,-5.
 6925799683,0.0958286345\C,11.7540087711,-7.1403308579,-0.0032012238\C,
 10.5499872247,-7.9369439937,0.018163366\C,9.3303056073,-7.8042300769,0
 .6981162214\C,8.5774465235,-8.9734342428,0.4672276243\C,9.3887971894,-
 9.8069709193,-0.3557067241\N,10.5393477915,-9.1956727883,-0.6149084321
 \F,11.7298338099,-11.1028300576,-1.4981292478\B,11.7322607431,-9.71619
 73808,-1.4523010605\F,11.7168134519,-9.1565304173,-2.7280436654\H,14.2
 941439787,-10.7968870517,-0.8364549108\H,14.4822274015,-6.9851658669,1
 .2775573717\H,9.5958115218,-5.4621111711,0.0409931647\H,9.6099277347,-
 3.0273485679,0.2344021737\H,11.765908492,-1.7721798067,0.3318284589\H,
 13.9148873848,-3.0330932597,0.1725053042\H,13.9170069339,-5.4679467008
 ,-0.0207439821\H,9.05990569,-6.9793633906,1.3481303813\H,9.184370185,-
 10.7902917856,-0.7719865447\C,16.2856478334,-9.3019868648,0.8331332053
 \C,17.0662797371,-8.3402522159,1.503022136\C,16.8398009455,-10.5783478
 508,0.6127127841\C,18.3503906641,-8.6455347103,1.9386302916\C,18.12445
 80218,-10.87983137,1.0494098862\C,18.8863115748,-9.916253144,1.7147386
 957\H,16.6641621902,-7.3414815312,1.6750946252\H,16.2561658657,-11.345
 0068629,0.1023587229\H,18.9399610293,-7.8869593389,2.4543011104\H,18.5
 348389855,-11.8742117023,0.8715472625\H,19.894026482,-10.1542814684,2.
 0563784422\C,7.2400613571,-9.2917098388,0.9490221263\C,6.6758789735,-1
 0.565256925,0.7379938342\C,6.4806047681,-8.330214656,1.6432306758\C,5.
 4019057361,-10.8641784961,1.2065776344\C,5.2071556875,-8.6329436484,2.
 1107706255\C,4.6609817776,-9.9007653633,1.8954456493\H,7.2432977472,-1
 1.3317870106,0.2094766942\H,6.8906583096,-7.3336735446,1.8093807448\H,
 4.9834994924,-11.8563571517,1.0352757604\H,4.6339353956,-7.8745651265,
 2.6448680898\H,3.6615836232,-10.1366891362,2.2620605857\\Version=ES64L
 -G16RevC.01\HF=-1374.1471329\RMSD=5.882e-09\RMSF=4.864e-07\Dipole=0.02
 4414,0.5250621,1.9909954\Quadrupole=31.3171356,-10.1991179,-21.1180177
 ,11.2898896,43.5541164,-29.429518\PG=C01 [X(C27H19B1F2N2)]\\@
 The archive entry for this job was punched.


 IT WAS A GAME, A VERY INTERESTING GAME ONE COULD
 PLAY.  WHENEVER ONE SOLVED ONE OF THE LITTLE PROBLEMS,
 ONE COULD WRITE A PAPER ABOUT IT.  IT WAS VERY EASY IN
 THOSE DAYS FOR ANY SECOND-RATE PHYSICIST TO DO
 FIRST-RATE WORK.  THERE HAS NOT BEEN SUCH A GLORIOUS
 TIME SINCE.  IT IS VERY DIFFICULT NOW FOR A FIRST-RATE
 PHYSICIST TO DO SECOND-RATE WORK.
     P.A.M. DIRAC, ON THE EARLY DAYS OF QUANTUM MECHANICS
                   DIRECTIONS IN PHYSICS, 1978, P. 7
 Job cpu time:       0 days  0 hours  7 minutes 27.5 seconds.
 Elapsed time:       0 days  3 hours 58 minutes 56.2 seconds.
 File lengths (MBytes):  RWF=   1886 Int=      0 D2E=      0 Chk=     92 Scr=      1
 Normal termination of Gaussian 16 at Tue Feb  1 16:17:54 2022.
