 Entering Gaussian System, Link 0=/lustre1/prg/gaussian/bin/G16_C01_Linda_AVX/g16/g16
 Initial command:
 /lustre1/prg/gaussian/bin/G16_C01_Linda_AVX/g16/l1.exe "/lustre1/prg/webmo/data/webmo20/toliste/4372/scratch/Gau-30138.inp" -scrdir="/lustre1/prg/webmo/data/webmo20/toliste/4372/scratch/"
 Default is to use a total of  16 processors:
                               16 via shared-memory
                                1 via Linda
 Entering Link 1 = /lustre1/prg/gaussian/bin/G16_C01_Linda_AVX/g16/l1.exe PID=     30139.
  
 Copyright (c) 1988-2019, Gaussian, Inc.  All Rights Reserved.
  
 This is part of the Gaussian(R) 16 program.  It is based on
 the Gaussian(R) 09 system (copyright 2009, Gaussian, Inc.),
 the Gaussian(R) 03 system (copyright 2003, Gaussian, Inc.),
 the Gaussian(R) 98 system (copyright 1998, Gaussian, Inc.),
 the Gaussian(R) 94 system (copyright 1995, Gaussian, Inc.),
 the Gaussian 92(TM) system (copyright 1992, Gaussian, Inc.),
 the Gaussian 90(TM) system (copyright 1990, Gaussian, Inc.),
 the Gaussian 88(TM) system (copyright 1988, Gaussian, Inc.),
 the Gaussian 86(TM) system (copyright 1986, Carnegie Mellon
 University), and the Gaussian 82(TM) system (copyright 1983,
 Carnegie Mellon University). Gaussian is a federally registered
 trademark of Gaussian, Inc.
  
 This software contains proprietary and confidential information,
 including trade secrets, belonging to Gaussian, Inc.
  
 This software is provided under written license and may be
 used, copied, transmitted, or stored only in accord with that
 written license.
  
 The following legend is applicable only to US Government
 contracts under FAR:
  
                    RESTRICTED RIGHTS LEGEND
  
 Use, reproduction and disclosure by the US Government is
 subject to restrictions as set forth in subparagraphs (a)
 and (c) of the Commercial Computer Software - Restricted
 Rights clause in FAR 52.227-19.
  
 Gaussian, Inc.
 340 Quinnipiac St., Bldg. 40, Wallingford CT 06492
  
  
 ---------------------------------------------------------------
 Warning -- This program may not be used in any manner that
 competes with the business of Gaussian, Inc. or will provide
 assistance to any competitor of Gaussian, Inc.  The licensee
 of this program is prohibited from giving any competitor of
 Gaussian, Inc. access to this program.  By using this program,
 the user acknowledges that Gaussian, Inc. is engaged in the
 business of creating and licensing software in the field of
 computational chemistry and represents and warrants to the
 licensee that it is not a competitor of Gaussian, Inc. and that
 it will not use this program in any manner prohibited above.
 ---------------------------------------------------------------
  

 Cite this work as:
 Gaussian 16, Revision C.01,
 M. J. Frisch, G. W. Trucks, H. B. Schlegel, G. E. Scuseria, 
 M. A. Robb, J. R. Cheeseman, G. Scalmani, V. Barone, 
 G. A. Petersson, H. Nakatsuji, X. Li, M. Caricato, A. V. Marenich, 
 J. Bloino, B. G. Janesko, R. Gomperts, B. Mennucci, H. P. Hratchian, 
 J. V. Ortiz, A. F. Izmaylov, J. L. Sonnenberg, D. Williams-Young, 
 F. Ding, F. Lipparini, F. Egidi, J. Goings, B. Peng, A. Petrone, 
 T. Henderson, D. Ranasinghe, V. G. Zakrzewski, J. Gao, N. Rega, 
 G. Zheng, W. Liang, M. Hada, M. Ehara, K. Toyota, R. Fukuda, 
 J. Hasegawa, M. Ishida, T. Nakajima, Y. Honda, O. Kitao, H. Nakai, 
 T. Vreven, K. Throssell, J. A. Montgomery, Jr., J. E. Peralta, 
 F. Ogliaro, M. J. Bearpark, J. J. Heyd, E. N. Brothers, K. N. Kudin, 
 V. N. Staroverov, T. A. Keith, R. Kobayashi, J. Normand, 
 K. Raghavachari, A. P. Rendell, J. C. Burant, S. S. Iyengar, 
 J. Tomasi, M. Cossi, J. M. Millam, M. Klene, C. Adamo, R. Cammi, 
 J. W. Ochterski, R. L. Martin, K. Morokuma, O. Farkas, 
 J. B. Foresman, and D. J. Fox, Gaussian, Inc., Wallingford CT, 2019.
 
 ******************************************
 Gaussian 16:  ES64L-G16RevC.01  3-Jul-2019
                31-Jan-2022 
 ******************************************
 %LindaWorkers=fizika133,fizika134,fizika135,fizika136,fizika138,fizika139,fizika
 140,fizika141
 %chk=bodipy.chk
 SetLPE:  input flags=" -opt "Tsnet.Node.lindarsharg: ssh" "
 SetLPE:    new flags=" -opt "Tsnet.Node.lindarsharg: ssh" -opt 'Tsnet.Node.lindarsharg: ssh'  -nodelist 'fizika133.fizika.bullx fizika134.fizika.bullx fizika135.fizika.bullx fizika136.fizika.bullx fizika138.fizika.bullx fizika139.fizika.bullx fizika140.fizika.bullx fizika141.fizika.bullx' -env GAUSS_MDEF=14763950080 -env GAUSS_EXEDIR="/lustre1/prg/gaussian/bin/G16_C01_Linda_AVX/g16/bsd:/lustre1/prg/gaussian/bin/G16_C01_Linda_AVX/g16/private:/lustre1/prg/gaussian/bin/G16_C01_Linda_AVX/g16""
 Will use up to    8 processors via Linda.
 ----------------------------------------------------------------------
 #p m062x cc-pvdz scrf=(cpcm,solvent=Methanol) td=(nstate=6,root=1) opt
 =tight nosymm density=all int=ultrafine fchk
 ----------------------------------------------------------------------
 1/7=10,18=20,19=15,26=6,38=1/1,3;
 2/9=110,12=2,15=1,17=6,18=5,40=1/2;
 3/5=16,11=9,25=1,30=1,70=2101,71=1,72=3,74=-55,75=-5/1,2,3,8;
 4//1;
 5/5=2,38=5,53=3/2;
 8/6=1,10=1,107=1,108=6/1;
 9/8=1,15=2,30=10,41=6,42=1,70=2/14;
 10/5=4,28=1,31=1/2;
 6/7=2,8=2,9=2,10=2,22=-2/1;
 7/12=6,13=5,14=1,30=1/1,2,3,16;
 1/7=10,18=20,19=15,26=6/3(2);
 2/9=110,15=1/2;
 99//99;
 2/9=110,15=1/2;
 3/5=16,11=9,25=1,30=1,70=2105,71=1,72=3,74=-55,75=-5/1,2,3,8;
 4/5=5,16=3,69=1/1;
 5/5=2,38=5,53=3/2;
 8/6=1,10=1,107=1,108=6/1;
 9/8=1,15=2,30=10,41=6,42=1,49=4,70=2/14;
 10/5=4,28=1,31=1/2;
 7/12=6,13=5,14=1,30=1/1,2,3,16;
 1/7=10,18=20,19=15,26=6/3(-8);
 2/9=110,15=1/2;
 6/7=2,8=2,9=2,10=2,22=-2/1;
 99/9=10/99;
 Leave Link    1 at Mon Jan 31 14:41:26 2022, MaxMem=           0 cpu:               2.4 elap:               0.2
 (Enter /lustre1/prg/gaussian/bin/G16_C01_Linda_AVX/g16/l101.exe)
 --------------------------------------
 BDP-PP-phenyl, optimized S1 in toluene
 --------------------------------------
 Symbolic Z-matrix:
 Charge =  0 Multiplicity = 1
 N                     12.62367  -9.4506   -0.98875 
 C                     13.63767  -9.87487  -1.73835 
 C                     14.37617  -8.7627   -2.23263 
 C                     13.73264  -7.61155  -1.72688 
 C                     12.65731  -8.0399   -0.93462 
 C                     10.50976  -5.14439  -0.15971 
 C                     10.49579  -3.75399  -0.09963 
 C                     11.68762  -3.04389   0.05368 
 C                     12.89423  -3.73787   0.15058 
 C                     12.91292  -5.12869   0.0884 
 C                     11.72023  -5.856    -0.07284 
 C                     11.72103  -7.32481  -0.13704 
 C                     10.82157  -8.07464   0.67324 
 C                     9.97659  -7.67593   1.71821 
 C                     9.41416  -8.84334   2.28069 
 C                     9.94715  -9.93433   1.53585 
 N                     10.76389  -9.48104   0.58897 
 F                     11.94401  -11.52245   0.05941 
 B                     11.45987  -10.3404  -0.49036 
 F                     10.58086  -10.61516  -1.53887 
 H                     13.77189  -10.93767  -1.92473 
 H                     14.01281  -6.57782  -1.89604 
 H                     9.57792  -5.6946   -0.30006 
 H                     9.54788  -3.2208   -0.18178 
 H                     11.67562  -1.95458   0.10049 
 H                     13.82909  -3.19282   0.28674 
 H                     13.85632  -5.66434   0.20065 
 H                     9.84781  -6.65296   2.05644 
 H                     9.76341  -11.00134   1.63475 
 C                     15.54078  -8.83366  -3.09953 
 C                     16.09101  -7.6634   -3.6595 
 C                     16.15015  -10.06883  -3.40061 
 C                     17.20509  -7.7274   -4.48704 
 C                     17.26394  -10.12857  -4.22829 
 C                     17.7977  -8.95913  -4.77608 
 H                     15.63186  -6.69733  -3.44861 
 H                     15.75246  -10.9895  -2.97287 
 H                     17.6149  -6.81107  -4.91293 
 H                     17.72235  -11.09334  -4.44714 
 H                     18.67216  -9.00774  -5.42561 
 C                     8.48348  -8.94761   3.39182 
 C                     7.91628  -7.79086   3.96317 
 C                     8.12583  -10.20192   3.92744 
 C                     7.02798  -7.88625   5.027 
 C                     7.23719  -10.29295   4.99082 
 C                     6.68349  -9.13653   5.54668 
 H                     8.17032  -6.81053   3.55937 
 H                     8.55655  -11.11305   3.51144 
 H                     6.59767  -6.9801    5.45443 
 H                     6.97476  -11.27204   5.39242 
 H                     5.98586  -9.20981   6.38145 
 
 ITRead=  0  0  0  0  0  0  0  0  0  0  0  0  0  0  0  0  0  0  0  0
 ITRead=  0  0  0  0  0  0  0  0  0  0  0  0  0  0  0  0  0  0  0  0
 ITRead=  0  0  0  0  0  0  0  0  0  0  0
 MicOpt= -1 -1 -1 -1 -1 -1 -1 -1 -1 -1 -1 -1 -1 -1 -1 -1 -1 -1 -1 -1
 MicOpt= -1 -1 -1 -1 -1 -1 -1 -1 -1 -1 -1 -1 -1 -1 -1 -1 -1 -1 -1 -1
 MicOpt= -1 -1 -1 -1 -1 -1 -1 -1 -1 -1 -1
 NAtoms=     51 NQM=       51 NQMF=       0 NMMI=      0 NMMIF=      0
                NMic=       0 NMicF=      0.
                    Isotopes and Nuclear Properties:
 (Nuclear quadrupole moments (NQMom) in fm**2, nuclear magnetic moments (NMagM)
  in nuclear magnetons)

  Atom         1           2           3           4           5           6           7           8           9          10
 IAtWgt=          14          12          12          12          12          12          12          12          12          12
 AtmWgt=  14.0030740  12.0000000  12.0000000  12.0000000  12.0000000  12.0000000  12.0000000  12.0000000  12.0000000  12.0000000
 NucSpn=           2           0           0           0           0           0           0           0           0           0
 AtZEff=  -0.0000000  -0.0000000  -0.0000000  -0.0000000  -0.0000000  -0.0000000  -0.0000000  -0.0000000  -0.0000000  -0.0000000
 NQMom=    2.0440000   0.0000000   0.0000000   0.0000000   0.0000000   0.0000000   0.0000000   0.0000000   0.0000000   0.0000000
 NMagM=    0.4037610   0.0000000   0.0000000   0.0000000   0.0000000   0.0000000   0.0000000   0.0000000   0.0000000   0.0000000
 AtZNuc=   7.0000000   6.0000000   6.0000000   6.0000000   6.0000000   6.0000000   6.0000000   6.0000000   6.0000000   6.0000000

  Atom        11          12          13          14          15          16          17          18          19          20
 IAtWgt=          12          12          12          12          12          12          14          19          11          19
 AtmWgt=  12.0000000  12.0000000  12.0000000  12.0000000  12.0000000  12.0000000  14.0030740  18.9984032  11.0093053  18.9984032
 NucSpn=           0           0           0           0           0           0           2           1           3           1
 AtZEff=  -0.0000000  -0.0000000  -0.0000000  -0.0000000  -0.0000000  -0.0000000  -0.0000000  -0.0000000  -0.0000000  -0.0000000
 NQMom=    0.0000000   0.0000000   0.0000000   0.0000000   0.0000000   0.0000000   2.0440000   0.0000000   4.0590000   0.0000000
 NMagM=    0.0000000   0.0000000   0.0000000   0.0000000   0.0000000   0.0000000   0.4037610   2.6288670   2.6886370   2.6288670
 AtZNuc=   6.0000000   6.0000000   6.0000000   6.0000000   6.0000000   6.0000000   7.0000000   9.0000000   5.0000000   9.0000000

  Atom        21          22          23          24          25          26          27          28          29          30
 IAtWgt=           1           1           1           1           1           1           1           1           1          12
 AtmWgt=   1.0078250   1.0078250   1.0078250   1.0078250   1.0078250   1.0078250   1.0078250   1.0078250   1.0078250  12.0000000
 NucSpn=           1           1           1           1           1           1           1           1           1           0
 AtZEff=  -0.0000000  -0.0000000  -0.0000000  -0.0000000  -0.0000000  -0.0000000  -0.0000000  -0.0000000  -0.0000000  -0.0000000
 NQMom=    0.0000000   0.0000000   0.0000000   0.0000000   0.0000000   0.0000000   0.0000000   0.0000000   0.0000000   0.0000000
 NMagM=    2.7928460   2.7928460   2.7928460   2.7928460   2.7928460   2.7928460   2.7928460   2.7928460   2.7928460   0.0000000
 AtZNuc=   1.0000000   1.0000000   1.0000000   1.0000000   1.0000000   1.0000000   1.0000000   1.0000000   1.0000000   6.0000000

  Atom        31          32          33          34          35          36          37          38          39          40
 IAtWgt=          12          12          12          12          12           1           1           1           1           1
 AtmWgt=  12.0000000  12.0000000  12.0000000  12.0000000  12.0000000   1.0078250   1.0078250   1.0078250   1.0078250   1.0078250
 NucSpn=           0           0           0           0           0           1           1           1           1           1
 AtZEff=  -0.0000000  -0.0000000  -0.0000000  -0.0000000  -0.0000000  -0.0000000  -0.0000000  -0.0000000  -0.0000000  -0.0000000
 NQMom=    0.0000000   0.0000000   0.0000000   0.0000000   0.0000000   0.0000000   0.0000000   0.0000000   0.0000000   0.0000000
 NMagM=    0.0000000   0.0000000   0.0000000   0.0000000   0.0000000   2.7928460   2.7928460   2.7928460   2.7928460   2.7928460
 AtZNuc=   6.0000000   6.0000000   6.0000000   6.0000000   6.0000000   1.0000000   1.0000000   1.0000000   1.0000000   1.0000000

  Atom        41          42          43          44          45          46          47          48          49          50
 IAtWgt=          12          12          12          12          12          12           1           1           1           1
 AtmWgt=  12.0000000  12.0000000  12.0000000  12.0000000  12.0000000  12.0000000   1.0078250   1.0078250   1.0078250   1.0078250
 NucSpn=           0           0           0           0           0           0           1           1           1           1
 AtZEff=  -0.0000000  -0.0000000  -0.0000000  -0.0000000  -0.0000000  -0.0000000  -0.0000000  -0.0000000  -0.0000000  -0.0000000
 NQMom=    0.0000000   0.0000000   0.0000000   0.0000000   0.0000000   0.0000000   0.0000000   0.0000000   0.0000000   0.0000000
 NMagM=    0.0000000   0.0000000   0.0000000   0.0000000   0.0000000   0.0000000   2.7928460   2.7928460   2.7928460   2.7928460
 AtZNuc=   6.0000000   6.0000000   6.0000000   6.0000000   6.0000000   6.0000000   1.0000000   1.0000000   1.0000000   1.0000000

  Atom        51
 IAtWgt=           1
 AtmWgt=   1.0078250
 NucSpn=           1
 AtZEff=  -0.0000000
 NQMom=    0.0000000
 NMagM=    2.7928460
 AtZNuc=   1.0000000
 Leave Link  101 at Mon Jan 31 14:41:27 2022, MaxMem= 14763950080 cpu:              12.2 elap:               0.8
 (Enter /lustre1/prg/gaussian/bin/G16_C01_Linda_AVX/g16/l103.exe)

 GradGradGradGradGradGradGradGradGradGradGradGradGradGradGradGradGradGrad
 Berny optimization.
 Initialization pass.
                           ----------------------------
                           !    Initial Parameters    !
                           ! (Angstroms and Degrees)  !
 --------------------------                            --------------------------
 ! Name  Definition              Value          Derivative Info.                !
 --------------------------------------------------------------------------------
 ! R1    R(1,2)                  1.3305         estimate D2E/DX2                !
 ! R2    R(1,5)                  1.4121         estimate D2E/DX2                !
 ! R3    R(1,19)                 1.5474         estimate D2E/DX2                !
 ! R4    R(2,3)                  1.4236         estimate D2E/DX2                !
 ! R5    R(2,21)                 1.0873         estimate D2E/DX2                !
 ! R6    R(3,4)                  1.4125         estimate D2E/DX2                !
 ! R7    R(3,30)                 1.4536         estimate D2E/DX2                !
 ! R8    R(4,5)                  1.4027         estimate D2E/DX2                !
 ! R9    R(4,22)                 1.0843         estimate D2E/DX2                !
 ! R10   R(5,12)                 1.4227         estimate D2E/DX2                !
 ! R11   R(6,7)                  1.3918         estimate D2E/DX2                !
 ! R12   R(6,11)                 1.4068         estimate D2E/DX2                !
 ! R13   R(6,23)                 1.0912         estimate D2E/DX2                !
 ! R14   R(7,8)                  1.3958         estimate D2E/DX2                !
 ! R15   R(7,24)                 1.0907         estimate D2E/DX2                !
 ! R16   R(8,9)                  1.3953         estimate D2E/DX2                !
 ! R17   R(8,25)                 1.0904         estimate D2E/DX2                !
 ! R18   R(9,10)                 1.3923         estimate D2E/DX2                !
 ! R19   R(9,26)                 1.0907         estimate D2E/DX2                !
 ! R20   R(10,11)                1.4062         estimate D2E/DX2                !
 ! R21   R(10,27)                1.0907         estimate D2E/DX2                !
 ! R22   R(11,12)                1.4702         estimate D2E/DX2                !
 ! R23   R(12,13)                1.424          estimate D2E/DX2                !
 ! R24   R(13,14)                1.4018         estimate D2E/DX2                !
 ! R25   R(13,17)                1.4101         estimate D2E/DX2                !
 ! R26   R(14,15)                1.4126         estimate D2E/DX2                !
 ! R27   R(14,28)                1.0851         estimate D2E/DX2                !
 ! R28   R(15,16)                1.4245         estimate D2E/DX2                !
 ! R29   R(15,41)                1.4532         estimate D2E/DX2                !
 ! R30   R(16,17)                1.3301         estimate D2E/DX2                !
 ! R31   R(16,29)                1.0872         estimate D2E/DX2                !
 ! R32   R(17,19)                1.5453         estimate D2E/DX2                !
 ! R33   R(18,19)                1.3906         estimate D2E/DX2                !
 ! R34   R(19,20)                1.3955         estimate D2E/DX2                !
 ! R35   R(30,31)                1.4092         estimate D2E/DX2                !
 ! R36   R(30,32)                1.4098         estimate D2E/DX2                !
 ! R37   R(31,33)                1.3893         estimate D2E/DX2                !
 ! R38   R(31,36)                1.0902         estimate D2E/DX2                !
 ! R39   R(32,34)                1.3889         estimate D2E/DX2                !
 ! R40   R(32,37)                1.0903         estimate D2E/DX2                !
 ! R41   R(33,35)                1.3971         estimate D2E/DX2                !
 ! R42   R(33,38)                1.0904         estimate D2E/DX2                !
 ! R43   R(34,35)                1.3973         estimate D2E/DX2                !
 ! R44   R(34,39)                1.0903         estimate D2E/DX2                !
 ! R45   R(35,40)                1.0904         estimate D2E/DX2                !
 ! R46   R(41,42)                1.4093         estimate D2E/DX2                !
 ! R47   R(41,43)                1.41           estimate D2E/DX2                !
 ! R48   R(42,44)                1.3892         estimate D2E/DX2                !
 ! R49   R(42,47)                1.0902         estimate D2E/DX2                !
 ! R50   R(43,45)                1.3888         estimate D2E/DX2                !
 ! R51   R(43,48)                1.0903         estimate D2E/DX2                !
 ! R52   R(44,46)                1.3971         estimate D2E/DX2                !
 ! R53   R(44,49)                1.0904         estimate D2E/DX2                !
 ! R54   R(45,46)                1.3975         estimate D2E/DX2                !
 ! R55   R(45,50)                1.0903         estimate D2E/DX2                !
 ! R56   R(46,51)                1.0904         estimate D2E/DX2                !
 ! A1    A(2,1,5)              108.7844         estimate D2E/DX2                !
 ! A2    A(2,1,19)             124.8401         estimate D2E/DX2                !
 ! A3    A(5,1,19)             125.4509         estimate D2E/DX2                !
 ! A4    A(1,2,3)              109.9901         estimate D2E/DX2                !
 ! A5    A(1,2,21)             120.1558         estimate D2E/DX2                !
 ! A6    A(3,2,21)             129.7966         estimate D2E/DX2                !
 ! A7    A(2,3,4)              106.0238         estimate D2E/DX2                !
 ! A8    A(2,3,30)             125.7723         estimate D2E/DX2                !
 ! A9    A(4,3,30)             128.1969         estimate D2E/DX2                !
 ! A10   A(3,4,5)              107.6164         estimate D2E/DX2                !
 ! A11   A(3,4,22)             127.1137         estimate D2E/DX2                !
 ! A12   A(5,4,22)             125.2637         estimate D2E/DX2                !
 ! A13   A(1,5,4)              107.5586         estimate D2E/DX2                !
 ! A14   A(1,5,12)             120.5253         estimate D2E/DX2                !
 ! A15   A(4,5,12)             131.8875         estimate D2E/DX2                !
 ! A16   A(7,6,11)             120.7505         estimate D2E/DX2                !
 ! A17   A(7,6,23)             120.0466         estimate D2E/DX2                !
 ! A18   A(11,6,23)            119.186          estimate D2E/DX2                !
 ! A19   A(6,7,8)              120.2926         estimate D2E/DX2                !
 ! A20   A(6,7,24)             119.5939         estimate D2E/DX2                !
 ! A21   A(8,7,24)             120.1114         estimate D2E/DX2                !
 ! A22   A(7,8,9)              119.5378         estimate D2E/DX2                !
 ! A23   A(7,8,25)             120.2359         estimate D2E/DX2                !
 ! A24   A(9,8,25)             120.226          estimate D2E/DX2                !
 ! A25   A(8,9,10)             120.353          estimate D2E/DX2                !
 ! A26   A(8,9,26)             120.0879         estimate D2E/DX2                !
 ! A27   A(10,9,26)            119.5557         estimate D2E/DX2                !
 ! A28   A(9,10,11)            120.689          estimate D2E/DX2                !
 ! A29   A(9,10,27)            119.8413         estimate D2E/DX2                !
 ! A30   A(11,10,27)           119.4347         estimate D2E/DX2                !
 ! A31   A(6,11,10)            118.3745         estimate D2E/DX2                !
 ! A32   A(6,11,12)            120.2063         estimate D2E/DX2                !
 ! A33   A(10,11,12)           121.4164         estimate D2E/DX2                !
 ! A34   A(5,12,11)            121.8017         estimate D2E/DX2                !
 ! A35   A(5,12,13)            118.0346         estimate D2E/DX2                !
 ! A36   A(11,12,13)           120.0574         estimate D2E/DX2                !
 ! A37   A(12,13,14)           130.9316         estimate D2E/DX2                !
 ! A38   A(12,13,17)           121.132          estimate D2E/DX2                !
 ! A39   A(14,13,17)           107.6729         estimate D2E/DX2                !
 ! A40   A(13,14,15)           107.5641         estimate D2E/DX2                !
 ! A41   A(13,14,28)           124.8938         estimate D2E/DX2                !
 ! A42   A(15,14,28)           127.4242         estimate D2E/DX2                !
 ! A43   A(14,15,16)           106.0071         estimate D2E/DX2                !
 ! A44   A(14,15,41)           128.2249         estimate D2E/DX2                !
 ! A45   A(16,15,41)           125.7679         estimate D2E/DX2                !
 ! A46   A(15,16,17)           109.937          estimate D2E/DX2                !
 ! A47   A(15,16,29)           129.8552         estimate D2E/DX2                !
 ! A48   A(17,16,29)           120.1986         estimate D2E/DX2                !
 ! A49   A(13,17,16)           108.8128         estimate D2E/DX2                !
 ! A50   A(13,17,19)           125.3089         estimate D2E/DX2                !
 ! A51   A(16,17,19)           125.7522         estimate D2E/DX2                !
 ! A52   A(1,19,17)            104.1176         estimate D2E/DX2                !
 ! A53   A(1,19,18)            110.748          estimate D2E/DX2                !
 ! A54   A(1,19,20)            110.1778         estimate D2E/DX2                !
 ! A55   A(17,19,18)           110.6943         estimate D2E/DX2                !
 ! A56   A(17,19,20)           110.5236         estimate D2E/DX2                !
 ! A57   A(18,19,20)           110.424          estimate D2E/DX2                !
 ! A58   A(3,30,31)            120.6159         estimate D2E/DX2                !
 ! A59   A(3,30,32)            121.0935         estimate D2E/DX2                !
 ! A60   A(31,30,32)           118.2905         estimate D2E/DX2                !
 ! A61   A(30,31,33)           120.7671         estimate D2E/DX2                !
 ! A62   A(30,31,36)           119.6417         estimate D2E/DX2                !
 ! A63   A(33,31,36)           119.5887         estimate D2E/DX2                !
 ! A64   A(30,32,34)           120.7671         estimate D2E/DX2                !
 ! A65   A(30,32,37)           119.8921         estimate D2E/DX2                !
 ! A66   A(34,32,37)           119.3377         estimate D2E/DX2                !
 ! A67   A(31,33,35)           120.2646         estimate D2E/DX2                !
 ! A68   A(31,33,38)           119.6911         estimate D2E/DX2                !
 ! A69   A(35,33,38)           120.0441         estimate D2E/DX2                !
 ! A70   A(32,34,35)           120.2594         estimate D2E/DX2                !
 ! A71   A(32,34,39)           119.6574         estimate D2E/DX2                !
 ! A72   A(35,34,39)           120.083          estimate D2E/DX2                !
 ! A73   A(33,35,34)           119.6513         estimate D2E/DX2                !
 ! A74   A(33,35,40)           120.1802         estimate D2E/DX2                !
 ! A75   A(34,35,40)           120.1685         estimate D2E/DX2                !
 ! A76   A(15,41,42)           120.5873         estimate D2E/DX2                !
 ! A77   A(15,41,43)           121.114          estimate D2E/DX2                !
 ! A78   A(42,41,43)           118.2985         estimate D2E/DX2                !
 ! A79   A(41,42,44)           120.7595         estimate D2E/DX2                !
 ! A80   A(41,42,47)           119.6104         estimate D2E/DX2                !
 ! A81   A(44,42,47)           119.6275         estimate D2E/DX2                !
 ! A82   A(41,43,45)           120.7621         estimate D2E/DX2                !
 ! A83   A(41,43,48)           119.8854         estimate D2E/DX2                !
 ! A84   A(45,43,48)           119.3499         estimate D2E/DX2                !
 ! A85   A(42,44,46)           120.2618         estimate D2E/DX2                !
 ! A86   A(42,44,49)           119.6999         estimate D2E/DX2                !
 ! A87   A(46,44,49)           120.0381         estimate D2E/DX2                !
 ! A88   A(43,45,46)           120.255          estimate D2E/DX2                !
 ! A89   A(43,45,50)           119.6638         estimate D2E/DX2                !
 ! A90   A(46,45,50)           120.081          estimate D2E/DX2                !
 ! A91   A(44,46,45)           119.663          estimate D2E/DX2                !
 ! A92   A(44,46,51)           120.1768         estimate D2E/DX2                !
 ! A93   A(45,46,51)           120.1602         estimate D2E/DX2                !
 ! D1    D(5,1,2,3)             -0.9446         estimate D2E/DX2                !
 ! D2    D(5,1,2,21)          -178.4487         estimate D2E/DX2                !
 ! D3    D(19,1,2,3)           168.5315         estimate D2E/DX2                !
 ! D4    D(19,1,2,21)           -8.9726         estimate D2E/DX2                !
 ! D5    D(2,1,5,4)              1.6022         estimate D2E/DX2                !
 ! D6    D(2,1,5,12)          -176.6754         estimate D2E/DX2                !
 ! D7    D(19,1,5,4)          -167.7937         estimate D2E/DX2                !
 ! D8    D(19,1,5,12)           13.9287         estimate D2E/DX2                !
 ! D9    D(2,1,19,17)          166.759          estimate D2E/DX2                !
 ! D10   D(2,1,19,18)           47.7508         estimate D2E/DX2                !
 ! D11   D(2,1,19,20)          -74.7138         estimate D2E/DX2                !
 ! D12   D(5,1,19,17)          -25.4964         estimate D2E/DX2                !
 ! D13   D(5,1,19,18)         -144.5047         estimate D2E/DX2                !
 ! D14   D(5,1,19,20)           93.0308         estimate D2E/DX2                !
 ! D15   D(1,2,3,4)             -0.0695         estimate D2E/DX2                !
 ! D16   D(1,2,3,30)          -179.1701         estimate D2E/DX2                !
 ! D17   D(21,2,3,4)           177.1215         estimate D2E/DX2                !
 ! D18   D(21,2,3,30)           -1.9791         estimate D2E/DX2                !
 ! D19   D(2,3,4,5)              1.0555         estimate D2E/DX2                !
 ! D20   D(2,3,4,22)          -179.8235         estimate D2E/DX2                !
 ! D21   D(30,3,4,5)          -179.873          estimate D2E/DX2                !
 ! D22   D(30,3,4,22)           -0.7521         estimate D2E/DX2                !
 ! D23   D(2,3,30,31)          172.0844         estimate D2E/DX2                !
 ! D24   D(2,3,30,32)           -8.0225         estimate D2E/DX2                !
 ! D25   D(4,3,30,31)           -6.8156         estimate D2E/DX2                !
 ! D26   D(4,3,30,32)          173.0775         estimate D2E/DX2                !
 ! D27   D(3,4,5,1)             -1.6216         estimate D2E/DX2                !
 ! D28   D(3,4,5,12)           176.3852         estimate D2E/DX2                !
 ! D29   D(22,4,5,1)           179.2369         estimate D2E/DX2                !
 ! D30   D(22,4,5,12)           -2.7562         estimate D2E/DX2                !
 ! D31   D(1,5,12,11)         -179.2479         estimate D2E/DX2                !
 ! D32   D(1,5,12,13)            4.4999         estimate D2E/DX2                !
 ! D33   D(4,5,12,11)            2.9582         estimate D2E/DX2                !
 ! D34   D(4,5,12,13)         -173.294          estimate D2E/DX2                !
 ! D35   D(11,6,7,8)            -0.2557         estimate D2E/DX2                !
 ! D36   D(11,6,7,24)          179.2159         estimate D2E/DX2                !
 ! D37   D(23,6,7,8)          -178.7517         estimate D2E/DX2                !
 ! D38   D(23,6,7,24)            0.72           estimate D2E/DX2                !
 ! D39   D(7,6,11,10)            0.5753         estimate D2E/DX2                !
 ! D40   D(7,6,11,12)          179.9715         estimate D2E/DX2                !
 ! D41   D(23,6,11,10)         179.0841         estimate D2E/DX2                !
 ! D42   D(23,6,11,12)          -1.5198         estimate D2E/DX2                !
 ! D43   D(6,7,8,9)             -0.1972         estimate D2E/DX2                !
 ! D44   D(6,7,8,25)           179.9907         estimate D2E/DX2                !
 ! D45   D(24,7,8,9)          -179.6662         estimate D2E/DX2                !
 ! D46   D(24,7,8,25)            0.5217         estimate D2E/DX2                !
 ! D47   D(7,8,9,10)             0.3188         estimate D2E/DX2                !
 ! D48   D(7,8,9,26)          -179.0098         estimate D2E/DX2                !
 ! D49   D(25,8,9,10)         -179.869          estimate D2E/DX2                !
 ! D50   D(25,8,9,26)            0.8023         estimate D2E/DX2                !
 ! D51   D(8,9,10,11)            0.0113         estimate D2E/DX2                !
 ! D52   D(8,9,10,27)         -177.8234         estimate D2E/DX2                !
 ! D53   D(26,9,10,11)         179.3435         estimate D2E/DX2                !
 ! D54   D(26,9,10,27)           1.5088         estimate D2E/DX2                !
 ! D55   D(9,10,11,6)           -0.4532         estimate D2E/DX2                !
 ! D56   D(9,10,11,12)        -179.8418         estimate D2E/DX2                !
 ! D57   D(27,10,11,6)         177.3902         estimate D2E/DX2                !
 ! D58   D(27,10,11,12)         -1.9984         estimate D2E/DX2                !
 ! D59   D(6,11,12,5)          135.1519         estimate D2E/DX2                !
 ! D60   D(6,11,12,13)         -48.6702         estimate D2E/DX2                !
 ! D61   D(10,11,12,5)         -45.4706         estimate D2E/DX2                !
 ! D62   D(10,11,12,13)        130.7072         estimate D2E/DX2                !
 ! D63   D(5,12,13,14)         166.9617         estimate D2E/DX2                !
 ! D64   D(5,12,13,17)          -6.3662         estimate D2E/DX2                !
 ! D65   D(11,12,13,14)         -9.3583         estimate D2E/DX2                !
 ! D66   D(11,12,13,17)        177.3138         estimate D2E/DX2                !
 ! D67   D(12,13,14,15)       -173.3937         estimate D2E/DX2                !
 ! D68   D(12,13,14,28)          2.9034         estimate D2E/DX2                !
 ! D69   D(17,13,14,15)          0.6148         estimate D2E/DX2                !
 ! D70   D(17,13,14,28)        176.912          estimate D2E/DX2                !
 ! D71   D(12,13,17,16)        173.898          estimate D2E/DX2                !
 ! D72   D(12,13,17,19)         -9.9968         estimate D2E/DX2                !
 ! D73   D(14,13,17,16)         -0.8161         estimate D2E/DX2                !
 ! D74   D(14,13,17,19)        175.2891         estimate D2E/DX2                !
 ! D75   D(13,14,15,16)         -0.2081         estimate D2E/DX2                !
 ! D76   D(13,14,15,41)        179.6571         estimate D2E/DX2                !
 ! D77   D(28,14,15,16)       -176.3836         estimate D2E/DX2                !
 ! D78   D(28,14,15,41)          3.4816         estimate D2E/DX2                !
 ! D79   D(14,15,16,17)         -0.3029         estimate D2E/DX2                !
 ! D80   D(14,15,16,29)       -179.1762         estimate D2E/DX2                !
 ! D81   D(41,15,16,17)        179.8277         estimate D2E/DX2                !
 ! D82   D(41,15,16,29)          0.9544         estimate D2E/DX2                !
 ! D83   D(14,15,41,42)          6.8262         estimate D2E/DX2                !
 ! D84   D(14,15,41,43)       -173.072          estimate D2E/DX2                !
 ! D85   D(16,15,41,42)       -173.3335         estimate D2E/DX2                !
 ! D86   D(16,15,41,43)          6.7683         estimate D2E/DX2                !
 ! D87   D(15,16,17,13)          0.6924         estimate D2E/DX2                !
 ! D88   D(15,16,17,19)       -175.3913         estimate D2E/DX2                !
 ! D89   D(29,16,17,13)        179.6916         estimate D2E/DX2                !
 ! D90   D(29,16,17,19)          3.608          estimate D2E/DX2                !
 ! D91   D(13,17,19,1)          23.4566         estimate D2E/DX2                !
 ! D92   D(13,17,19,18)        142.5014         estimate D2E/DX2                !
 ! D93   D(13,17,19,20)        -94.8334         estimate D2E/DX2                !
 ! D94   D(16,17,19,1)        -161.0874         estimate D2E/DX2                !
 ! D95   D(16,17,19,18)        -42.0426         estimate D2E/DX2                !
 ! D96   D(16,17,19,20)         80.6225         estimate D2E/DX2                !
 ! D97   D(3,30,31,33)         179.9151         estimate D2E/DX2                !
 ! D98   D(3,30,31,36)          -0.6586         estimate D2E/DX2                !
 ! D99   D(32,30,31,33)          0.0191         estimate D2E/DX2                !
 ! D100  D(32,30,31,36)        179.4454         estimate D2E/DX2                !
 ! D101  D(3,30,32,34)        -179.9075         estimate D2E/DX2                !
 ! D102  D(3,30,32,37)          -0.5506         estimate D2E/DX2                !
 ! D103  D(31,30,32,34)         -0.012          estimate D2E/DX2                !
 ! D104  D(31,30,32,37)        179.3449         estimate D2E/DX2                !
 ! D105  D(30,31,33,35)         -0.0161         estimate D2E/DX2                !
 ! D106  D(30,31,33,38)        179.846          estimate D2E/DX2                !
 ! D107  D(36,31,33,35)       -179.4427         estimate D2E/DX2                !
 ! D108  D(36,31,33,38)          0.4193         estimate D2E/DX2                !
 ! D109  D(30,32,34,35)          0.0018         estimate D2E/DX2                !
 ! D110  D(30,32,34,39)        179.848          estimate D2E/DX2                !
 ! D111  D(37,32,34,35)       -179.3586         estimate D2E/DX2                !
 ! D112  D(37,32,34,39)          0.4876         estimate D2E/DX2                !
 ! D113  D(31,33,35,34)          0.0055         estimate D2E/DX2                !
 ! D114  D(31,33,35,40)       -179.9884         estimate D2E/DX2                !
 ! D115  D(38,33,35,34)       -179.8561         estimate D2E/DX2                !
 ! D116  D(38,33,35,40)          0.1501         estimate D2E/DX2                !
 ! D117  D(32,34,35,33)          0.0016         estimate D2E/DX2                !
 ! D118  D(32,34,35,40)        179.9955         estimate D2E/DX2                !
 ! D119  D(39,34,35,33)       -179.8439         estimate D2E/DX2                !
 ! D120  D(39,34,35,40)          0.1499         estimate D2E/DX2                !
 ! D121  D(15,41,42,44)       -179.8873         estimate D2E/DX2                !
 ! D122  D(15,41,42,47)          0.6998         estimate D2E/DX2                !
 ! D123  D(43,41,42,44)          0.0137         estimate D2E/DX2                !
 ! D124  D(43,41,42,47)       -179.3992         estimate D2E/DX2                !
 ! D125  D(15,41,43,45)        179.901          estimate D2E/DX2                !
 ! D126  D(15,41,43,48)          0.4847         estimate D2E/DX2                !
 ! D127  D(42,41,43,45)          0.0005         estimate D2E/DX2                !
 ! D128  D(42,41,43,48)       -179.4158         estimate D2E/DX2                !
 ! D129  D(41,42,44,46)         -0.0123         estimate D2E/DX2                !
 ! D130  D(41,42,44,49)       -179.8643         estimate D2E/DX2                !
 ! D131  D(47,42,44,46)        179.4005         estimate D2E/DX2                !
 ! D132  D(47,42,44,49)         -0.4515         estimate D2E/DX2                !
 ! D133  D(41,43,45,46)         -0.0161         estimate D2E/DX2                !
 ! D134  D(41,43,45,50)       -179.8681         estimate D2E/DX2                !
 ! D135  D(48,43,45,46)        179.4033         estimate D2E/DX2                !
 ! D136  D(48,43,45,50)         -0.4486         estimate D2E/DX2                !
 ! D137  D(42,44,46,45)         -0.0034         estimate D2E/DX2                !
 ! D138  D(42,44,46,51)       -179.9778         estimate D2E/DX2                !
 ! D139  D(49,44,46,45)        179.8481         estimate D2E/DX2                !
 ! D140  D(49,44,46,51)         -0.1263         estimate D2E/DX2                !
 ! D141  D(43,45,46,44)          0.0176         estimate D2E/DX2                !
 ! D142  D(43,45,46,51)        179.9919         estimate D2E/DX2                !
 ! D143  D(50,45,46,44)        179.8689         estimate D2E/DX2                !
 ! D144  D(50,45,46,51)         -0.1568         estimate D2E/DX2                !
 --------------------------------------------------------------------------------
 Trust Radius=3.00D-01 FncErr=5.00D-06 GrdErr=5.00D-06 EigMax=2.50D+02 EigMin=1.00D-04
 Number of steps in this run=    303 maximum allowed number of steps=    306.
 GradGradGradGradGradGradGradGradGradGradGradGradGradGradGradGradGradGrad

 Leave Link  103 at Mon Jan 31 14:41:27 2022, MaxMem= 14763950080 cpu:               0.5 elap:               0.0
 (Enter /lustre1/prg/gaussian/bin/G16_C01_Linda_AVX/g16/l202.exe)
 Symmetry turned off by external request.
 Stoichiometry    C27H19BF2N2
 Framework group  C1[X(C27H19BF2N2)]
 Deg. of freedom   147
 Full point group                 C1      NOp   1
                          Input orientation:                          
 ---------------------------------------------------------------------
 Center     Atomic      Atomic             Coordinates (Angstroms)
 Number     Number       Type             X           Y           Z
 ---------------------------------------------------------------------
      1          7           0       12.623665   -9.450596   -0.988748
      2          6           0       13.637669   -9.874871   -1.738346
      3          6           0       14.376168   -8.762702   -2.232625
      4          6           0       13.732638   -7.611554   -1.726879
      5          6           0       12.657312   -8.039898   -0.934616
      6          6           0       10.509762   -5.144387   -0.159713
      7          6           0       10.495791   -3.753987   -0.099626
      8          6           0       11.687620   -3.043892    0.053677
      9          6           0       12.894234   -3.737873    0.150576
     10          6           0       12.912919   -5.128692    0.088397
     11          6           0       11.720226   -5.855997   -0.072835
     12          6           0       11.721025   -7.324811   -0.137039
     13          6           0       10.821572   -8.074644    0.673244
     14          6           0        9.976586   -7.675934    1.718207
     15          6           0        9.414160   -8.843339    2.280691
     16          6           0        9.947154   -9.934331    1.535849
     17          7           0       10.763890   -9.481042    0.588972
     18          9           0       11.944013  -11.522445    0.059407
     19          5           0       11.459866  -10.340401   -0.490356
     20          9           0       10.580863  -10.615157   -1.538872
     21          1           0       13.771891  -10.937673   -1.924725
     22          1           0       14.012812   -6.577819   -1.896038
     23          1           0        9.577919   -5.694603   -0.300059
     24          1           0        9.547882   -3.220804   -0.181776
     25          1           0       11.675617   -1.954578    0.100490
     26          1           0       13.829087   -3.192818    0.286742
     27          1           0       13.856322   -5.664336    0.200652
     28          1           0        9.847805   -6.652964    2.056443
     29          1           0        9.763407  -11.001343    1.634748
     30          6           0       15.540785   -8.833660   -3.099530
     31          6           0       16.091008   -7.663397   -3.659495
     32          6           0       16.150150  -10.068828   -3.400611
     33          6           0       17.205089   -7.727397   -4.487043
     34          6           0       17.263943  -10.128573   -4.228293
     35          6           0       17.797695   -8.959125   -4.776082
     36          1           0       15.631857   -6.697333   -3.448613
     37          1           0       15.752457  -10.989504   -2.972869
     38          1           0       17.614895   -6.811069   -4.912932
     39          1           0       17.722348  -11.093338   -4.447137
     40          1           0       18.672159   -9.007739   -5.425605
     41          6           0        8.483480   -8.947606    3.391821
     42          6           0        7.916284   -7.790860    3.963171
     43          6           0        8.125834  -10.201918    3.927436
     44          6           0        7.027976   -7.886250    5.026999
     45          6           0        7.237192  -10.292953    4.990815
     46          6           0        6.683492   -9.136533    5.546677
     47          1           0        8.170317   -6.810533    3.559370
     48          1           0        8.556554  -11.113054    3.511443
     49          1           0        6.597672   -6.980098    5.454432
     50          1           0        6.974761  -11.272035    5.392417
     51          1           0        5.985856   -9.209812    6.381445
 ---------------------------------------------------------------------
 Rotational constants (GHZ):           0.2352065           0.0719671           0.0571013
 Leave Link  202 at Mon Jan 31 14:41:27 2022, MaxMem= 14763950080 cpu:               0.3 elap:               0.0
 (Enter /lustre1/prg/gaussian/bin/G16_C01_Linda_AVX/g16/l301.exe)
 Standard basis: CC-pVDZ (5D, 7F)
 Ernie: Thresh=  0.10000D-02 Tol=  0.10000D-05 Strict=F.
 Ernie:  64 primitive shells out of 799 were deleted.
   543 basis functions,  1189 primitive gaussians,   575 cartesian basis functions
   109 alpha electrons      109 beta electrons
       nuclear repulsion energy      2847.5736827302 Hartrees.
 IExCor= 4336 DFT=T Ex+Corr=M062X ExCW=0 ScaHFX=  0.540000
 ScaDFX=  1.000000  1.000000  1.000000  1.000000 ScalE2=  1.000000  1.000000
 IRadAn=      5 IRanWt=     -1 IRanGd=            0 ICorTp=0 IEmpDi=  4
 NAtoms=   51 NActive=   51 NUniq=   51 SFac= 1.00D+00 NAtFMM=   60 NAOKFM=F Big=F
 Integral buffers will be    131072 words long.
 Regular integral format.
 Two-electron integral symmetry is turned off.
 ------------------------------------------------------------------------------
 Polarizable Continuum Model (PCM)
 =================================
 Model                : C-PCM.
 Atomic radii         : UFF (Universal Force Field).
 Polarization charges : Total charges.
 Charge compensation  : None.
 Solution method      : On-the-fly selection.
 Cavity type          : Scaled VdW (van der Waals Surface) (Alpha=1.100).
 Cavity algorithm     : GePol (No added spheres)
                        Default sphere list used, NSphG=   51.
                        Lebedev-Laikov grids with approx.  5.0 points / Ang**2.
                        Smoothing algorithm: York/Karplus (Gamma=1.0000).
                        Polarization charges: spherical gaussians, with
                                              point-specific exponents (IZeta= 3).
                        Self-potential: point-specific (ISelfS= 7).
                        Self-field    : sphere-specific E.n sum rule (ISelfD= 2).
 1st derivatives      : Analytical E(r).r(x)/FMM algorithm (CHGder, D1EAlg=3).
                        Cavity 1st derivative terms included.
 Solvent              : Methanol, Eps=  32.613000 Eps(inf)=   1.765709
 ------------------------------------------------------------------------------
 GePol: Number of generator spheres                  =      51
 GePol: Total number of spheres                      =      51
 GePol: Number of exposed spheres                    =      51 (100.00%)
 GePol: Number of points                             =    3807
 GePol: Average weight of points                     =       0.13
 GePol: Minimum weight of points                     =   0.22D-10
 GePol: Maximum weight of points                     =    0.20577
 GePol: Number of points with low weight             =     271
 GePol: Fraction of low-weight points (<1% of avg)   =       7.12%
 GePol: Cavity surface area                          =    490.703 Ang**2
 GePol: Cavity volume                                =    556.461 Ang**3
 Leave Link  301 at Mon Jan 31 14:41:28 2022, MaxMem= 14763950080 cpu:               2.3 elap:               0.2
@@@@@@@@@@@@@@@@@@@@@@@@@@@@@@@@@@@@@@@@@@@@@@@@@@@@@@@@@@@
@    WARNING: REMOTE HOST IDENTIFICATION HAS CHANGED!     @
@@@@@@@@@@@@@@@@@@@@@@@@@@@@@@@@@@@@@@@@@@@@@@@@@@@@@@@@@@@
IT IS POSSIBLE THAT SOMEONE IS DOING SOMETHING NASTY!
Someone could be eavesdropping on you right now (man-in-the-middle attack)!
It is also possible that a host key has just been changed.
The fingerprint for the ECDSA key sent by the remote host is
SHA256:f2KP8AiUhiSjoZQJwtowwDIcMu+ZLmeZFpD3+HOBAJY.
Please contact your system administrator.
Add correct host key in /lustre2/home/toliste/.ssh/known_hosts to get rid of this message.
Offending ECDSA key in /lustre2/home/toliste/.ssh/known_hosts:81
Password authentication is disabled to avoid man-in-the-middle attacks.
Keyboard-interactive authentication is disabled to avoid man-in-the-middle attacks.
@@@@@@@@@@@@@@@@@@@@@@@@@@@@@@@@@@@@@@@@@@@@@@@@@@@@@@@@@@@
@    WARNING: REMOTE HOST IDENTIFICATION HAS CHANGED!     @
@@@@@@@@@@@@@@@@@@@@@@@@@@@@@@@@@@@@@@@@@@@@@@@@@@@@@@@@@@@
IT IS POSSIBLE THAT SOMEONE IS DOING SOMETHING NASTY!
Someone could be eavesdropping on you right now (man-in-the-middle attack)!
It is also possible that a host key has just been changed.
The fingerprint for the ECDSA key sent by the remote host is
SHA256:dgnBxPGxIvPnmtv52Nz461ZxKC+pv3JAvCeWd7n7GkU.
Please contact your system administrator.
Add correct host key in /lustre2/home/toliste/.ssh/known_hosts to get rid of this message.
Offending ECDSA key in /lustre2/home/toliste/.ssh/known_hosts:176
Password authentication is disabled to avoid man-in-the-middle attacks.
Keyboard-interactive authentication is disabled to avoid man-in-the-middle attacks.
@@@@@@@@@@@@@@@@@@@@@@@@@@@@@@@@@@@@@@@@@@@@@@@@@@@@@@@@@@@
@    WARNING: REMOTE HOST IDENTIFICATION HAS CHANGED!     @
@@@@@@@@@@@@@@@@@@@@@@@@@@@@@@@@@@@@@@@@@@@@@@@@@@@@@@@@@@@
IT IS POSSIBLE THAT SOMEONE IS DOING SOMETHING NASTY!
Someone could be eavesdropping on you right now (man-in-the-middle attack)!
It is also possible that a host key has just been changed.
The fingerprint for the ECDSA key sent by the remote host is
SHA256:4C2GklU9klFeyvyVbg/GZyiFQHEhHQ3I/wHSOX9mLWI.
Please contact your system administrator.
Add correct host key in /lustre2/home/toliste/.ssh/known_hosts to get rid of this message.
Offending ECDSA key in /lustre2/home/toliste/.ssh/known_hosts:175
Password authentication is disabled to avoid man-in-the-middle attacks.
Keyboard-interactive authentication is disabled to avoid man-in-the-middle attacks.
@@@@@@@@@@@@@@@@@@@@@@@@@@@@@@@@@@@@@@@@@@@@@@@@@@@@@@@@@@@
@    WARNING: REMOTE HOST IDENTIFICATION HAS CHANGED!     @
@@@@@@@@@@@@@@@@@@@@@@@@@@@@@@@@@@@@@@@@@@@@@@@@@@@@@@@@@@@
IT IS POSSIBLE THAT SOMEONE IS DOING SOMETHING NASTY!
Someone could be eavesdropping on you right now (man-in-the-middle attack)!
It is also possible that a host key has just been changed.
The fingerprint for the ECDSA key sent by the remote host is
SHA256:lOyV4r17Wlw2Df+nlWfiRe3c6Dl1lyZM4RTElJTm2lM.
Please contact your system administrator.
Add correct host key in /lustre2/home/toliste/.ssh/known_hosts to get rid of this message.
Offending ECDSA key in /lustre2/home/toliste/.ssh/known_hosts:55
Password authentication is disabled to avoid man-in-the-middle attacks.
Keyboard-interactive authentication is disabled to avoid man-in-the-middle attacks.
@@@@@@@@@@@@@@@@@@@@@@@@@@@@@@@@@@@@@@@@@@@@@@@@@@@@@@@@@@@
@    WARNING: REMOTE HOST IDENTIFICATION HAS CHANGED!     @
@@@@@@@@@@@@@@@@@@@@@@@@@@@@@@@@@@@@@@@@@@@@@@@@@@@@@@@@@@@
IT IS POSSIBLE THAT SOMEONE IS DOING SOMETHING NASTY!
Someone could be eavesdropping on you right now (man-in-the-middle attack)!
It is also possible that a host key has just been changed.
The fingerprint for the ECDSA key sent by the remote host is
SHA256:+jj9ELYlSGr42IajI/Ewk5CqhDi5wHEZbIwQ/U8SvT4.
Please contact your system administrator.
Add correct host key in /lustre2/home/toliste/.ssh/known_hosts to get rid of this message.
Offending ECDSA key in /lustre2/home/toliste/.ssh/known_hosts:58
Password authentication is disabled to avoid man-in-the-middle attacks.
Keyboard-interactive authentication is disabled to avoid man-in-the-middle attacks.
@@@@@@@@@@@@@@@@@@@@@@@@@@@@@@@@@@@@@@@@@@@@@@@@@@@@@@@@@@@
@    WARNING: REMOTE HOST IDENTIFICATION HAS CHANGED!     @
@@@@@@@@@@@@@@@@@@@@@@@@@@@@@@@@@@@@@@@@@@@@@@@@@@@@@@@@@@@
IT IS POSSIBLE THAT SOMEONE IS DOING SOMETHING NASTY!
Someone could be eavesdropping on you right now (man-in-the-middle attack)!
It is also possible that a host key has just been changed.
The fingerprint for the ECDSA key sent by the remote host is
SHA256:V2zC7uomJ1j9V70RvYUmtp8ywu6gOxyHvBfpwZz4arc.
Please contact your system administrator.
Add correct host key in /lustre2/home/toliste/.ssh/known_hosts to get rid of this message.
Offending ECDSA key in /lustre2/home/toliste/.ssh/known_hosts:57
Password authentication is disabled to avoid man-in-the-middle attacks.
Keyboard-interactive authentication is disabled to avoid man-in-the-middle attacks.
@@@@@@@@@@@@@@@@@@@@@@@@@@@@@@@@@@@@@@@@@@@@@@@@@@@@@@@@@@@
@    WARNING: REMOTE HOST IDENTIFICATION HAS CHANGED!     @
@@@@@@@@@@@@@@@@@@@@@@@@@@@@@@@@@@@@@@@@@@@@@@@@@@@@@@@@@@@
IT IS POSSIBLE THAT SOMEONE IS DOING SOMETHING NASTY!
Someone could be eavesdropping on you right now (man-in-the-middle attack)!
It is also possible that a host key has just been changed.
The fingerprint for the ECDSA key sent by the remote host is
SHA256:wzPSMGS2/Y8hruU71Qam3peL67DD1EXExZtM3FCmt18.
Please contact your system administrator.
Add correct host key in /lustre2/home/toliste/.ssh/known_hosts to get rid of this message.
Offending ECDSA key in /lustre2/home/toliste/.ssh/known_hosts:54
Password authentication is disabled to avoid man-in-the-middle attacks.
Keyboard-interactive authentication is disabled to avoid man-in-the-middle attacks.
 (Enter /lustre1/prg/gaussian/bin/G16_C01_Linda_AVX/g16/linda-exe/l302.exel)
 NPDir=0 NMtPBC=     1 NCelOv=     1 NCel=       1 NClECP=     1 NCelD=      1
         NCelK=      1 NCelE2=     1 NClLst=     1 CellRange=     0.0.
 One-electron integrals computed using PRISM.
 NBasis=   543 RedAO= T EigKep=  2.34D-04  NBF=   543
 NBsUse=   543 1.00D-06 EigRej= -1.00D+00 NBFU=   543
 Precomputing XC quadrature grid using
 IXCGrd= 4 IRadAn=           5 IRanWt=          -1 IRanGd=           0 AccXCQ= 0.00D+00.
 Generated NRdTot=       0 NPtTot=           0 NUsed=           0 NTot=          32
 NSgBfM=   557   557   557   557   557 MxSgAt=    51 MxSgA2=    51.
 Leave Link  302 at Mon Jan 31 14:41:31 2022, MaxMem= 14763950080 cpu:              31.6 elap:               2.0
 (Enter /lustre1/prg/gaussian/bin/G16_C01_Linda_AVX/g16/l303.exe)
 DipDrv:  MaxL=1.
 Leave Link  303 at Mon Jan 31 14:41:32 2022, MaxMem= 14763950080 cpu:               3.0 elap:               0.2
 (Enter /lustre1/prg/gaussian/bin/G16_C01_Linda_AVX/g16/l308.exe)
 Leave Link  308 at Mon Jan 31 14:41:32 2022, MaxMem= 14763950080 cpu:               3.0 elap:               0.2
@@@@@@@@@@@@@@@@@@@@@@@@@@@@@@@@@@@@@@@@@@@@@@@@@@@@@@@@@@@
@    WARNING: REMOTE HOST IDENTIFICATION HAS CHANGED!     @
@@@@@@@@@@@@@@@@@@@@@@@@@@@@@@@@@@@@@@@@@@@@@@@@@@@@@@@@@@@
IT IS POSSIBLE THAT SOMEONE IS DOING SOMETHING NASTY!
Someone could be eavesdropping on you right now (man-in-the-middle attack)!
It is also possible that a host key has just been changed.
The fingerprint for the ECDSA key sent by the remote host is
SHA256:f2KP8AiUhiSjoZQJwtowwDIcMu+ZLmeZFpD3+HOBAJY.
Please contact your system administrator.
Add correct host key in /lustre2/home/toliste/.ssh/known_hosts to get rid of this message.
Offending ECDSA key in /lustre2/home/toliste/.ssh/known_hosts:81
Password authentication is disabled to avoid man-in-the-middle attacks.
Keyboard-interactive authentication is disabled to avoid man-in-the-middle attacks.
@@@@@@@@@@@@@@@@@@@@@@@@@@@@@@@@@@@@@@@@@@@@@@@@@@@@@@@@@@@
@    WARNING: REMOTE HOST IDENTIFICATION HAS CHANGED!     @
@@@@@@@@@@@@@@@@@@@@@@@@@@@@@@@@@@@@@@@@@@@@@@@@@@@@@@@@@@@
IT IS POSSIBLE THAT SOMEONE IS DOING SOMETHING NASTY!
Someone could be eavesdropping on you right now (man-in-the-middle attack)!
It is also possible that a host key has just been changed.
The fingerprint for the ECDSA key sent by the remote host is
SHA256:dgnBxPGxIvPnmtv52Nz461ZxKC+pv3JAvCeWd7n7GkU.
Please contact your system administrator.
Add correct host key in /lustre2/home/toliste/.ssh/known_hosts to get rid of this message.
Offending ECDSA key in /lustre2/home/toliste/.ssh/known_hosts:176
Password authentication is disabled to avoid man-in-the-middle attacks.
Keyboard-interactive authentication is disabled to avoid man-in-the-middle attacks.
@@@@@@@@@@@@@@@@@@@@@@@@@@@@@@@@@@@@@@@@@@@@@@@@@@@@@@@@@@@
@    WARNING: REMOTE HOST IDENTIFICATION HAS CHANGED!     @
@@@@@@@@@@@@@@@@@@@@@@@@@@@@@@@@@@@@@@@@@@@@@@@@@@@@@@@@@@@
IT IS POSSIBLE THAT SOMEONE IS DOING SOMETHING NASTY!
Someone could be eavesdropping on you right now (man-in-the-middle attack)!
It is also possible that a host key has just been changed.
The fingerprint for the ECDSA key sent by the remote host is
SHA256:4C2GklU9klFeyvyVbg/GZyiFQHEhHQ3I/wHSOX9mLWI.
Please contact your system administrator.
Add correct host key in /lustre2/home/toliste/.ssh/known_hosts to get rid of this message.
Offending ECDSA key in /lustre2/home/toliste/.ssh/known_hosts:175
Password authentication is disabled to avoid man-in-the-middle attacks.
Keyboard-interactive authentication is disabled to avoid man-in-the-middle attacks.
@@@@@@@@@@@@@@@@@@@@@@@@@@@@@@@@@@@@@@@@@@@@@@@@@@@@@@@@@@@
@    WARNING: REMOTE HOST IDENTIFICATION HAS CHANGED!     @
@@@@@@@@@@@@@@@@@@@@@@@@@@@@@@@@@@@@@@@@@@@@@@@@@@@@@@@@@@@
IT IS POSSIBLE THAT SOMEONE IS DOING SOMETHING NASTY!
Someone could be eavesdropping on you right now (man-in-the-middle attack)!
It is also possible that a host key has just been changed.
The fingerprint for the ECDSA key sent by the remote host is
SHA256:wzPSMGS2/Y8hruU71Qam3peL67DD1EXExZtM3FCmt18.
Please contact your system administrator.
Add correct host key in /lustre2/home/toliste/.ssh/known_hosts to get rid of this message.
Offending ECDSA key in /lustre2/home/toliste/.ssh/known_hosts:54
Password authentication is disabled to avoid man-in-the-middle attacks.
Keyboard-interactive authentication is disabled to avoid man-in-the-middle attacks.
@@@@@@@@@@@@@@@@@@@@@@@@@@@@@@@@@@@@@@@@@@@@@@@@@@@@@@@@@@@
@    WARNING: REMOTE HOST IDENTIFICATION HAS CHANGED!     @
@@@@@@@@@@@@@@@@@@@@@@@@@@@@@@@@@@@@@@@@@@@@@@@@@@@@@@@@@@@
IT IS POSSIBLE THAT SOMEONE IS DOING SOMETHING NASTY!
Someone could be eavesdropping on you right now (man-in-the-middle attack)!
It is also possible that a host key has just been changed.
The fingerprint for the ECDSA key sent by the remote host is
SHA256:+jj9ELYlSGr42IajI/Ewk5CqhDi5wHEZbIwQ/U8SvT4.
Please contact your system administrator.
Add correct host key in /lustre2/home/toliste/.ssh/known_hosts to get rid of this message.
Offending ECDSA key in /lustre2/home/toliste/.ssh/known_hosts:58
Password authentication is disabled to avoid man-in-the-middle attacks.
Keyboard-interactive authentication is disabled to avoid man-in-the-middle attacks.
@@@@@@@@@@@@@@@@@@@@@@@@@@@@@@@@@@@@@@@@@@@@@@@@@@@@@@@@@@@
@    WARNING: REMOTE HOST IDENTIFICATION HAS CHANGED!     @
@@@@@@@@@@@@@@@@@@@@@@@@@@@@@@@@@@@@@@@@@@@@@@@@@@@@@@@@@@@
IT IS POSSIBLE THAT SOMEONE IS DOING SOMETHING NASTY!
Someone could be eavesdropping on you right now (man-in-the-middle attack)!
It is also possible that a host key has just been changed.
The fingerprint for the ECDSA key sent by the remote host is
SHA256:lOyV4r17Wlw2Df+nlWfiRe3c6Dl1lyZM4RTElJTm2lM.
Please contact your system administrator.
Add correct host key in /lustre2/home/toliste/.ssh/known_hosts to get rid of this message.
Offending ECDSA key in /lustre2/home/toliste/.ssh/known_hosts:55
Password authentication is disabled to avoid man-in-the-middle attacks.
Keyboard-interactive authentication is disabled to avoid man-in-the-middle attacks.
@@@@@@@@@@@@@@@@@@@@@@@@@@@@@@@@@@@@@@@@@@@@@@@@@@@@@@@@@@@
@    WARNING: REMOTE HOST IDENTIFICATION HAS CHANGED!     @
@@@@@@@@@@@@@@@@@@@@@@@@@@@@@@@@@@@@@@@@@@@@@@@@@@@@@@@@@@@
IT IS POSSIBLE THAT SOMEONE IS DOING SOMETHING NASTY!
Someone could be eavesdropping on you right now (man-in-the-middle attack)!
It is also possible that a host key has just been changed.
The fingerprint for the ECDSA key sent by the remote host is
SHA256:V2zC7uomJ1j9V70RvYUmtp8ywu6gOxyHvBfpwZz4arc.
Please contact your system administrator.
Add correct host key in /lustre2/home/toliste/.ssh/known_hosts to get rid of this message.
Offending ECDSA key in /lustre2/home/toliste/.ssh/known_hosts:57
Password authentication is disabled to avoid man-in-the-middle attacks.
Keyboard-interactive authentication is disabled to avoid man-in-the-middle attacks.
 (Enter /lustre1/prg/gaussian/bin/G16_C01_Linda_AVX/g16/linda-exe/l401.exel)
 ExpMin= 9.54D-02 ExpMax= 1.47D+04 ExpMxC= 5.03D+02 IAcc=3 IRadAn=         5 AccDes= 0.00D+00
 Harris functional with IExCor= 1009 and IRadAn=       5 diagonalized for initial guess.
 HarFok:  IExCor= 1009 AccDes= 0.00D+00 IRadAn=         5 IDoV= 1 UseB2=F ITyADJ=14
 ICtDFT=  3500011 ScaDFX=  1.000000  1.000000  1.000000  1.000000
 FoFCou: FMM=F IPFlag=           0 FMFlag=      100000 FMFlg1=           0
         NFxFlg=           0 DoJE=T BraDBF=F KetDBF=T FulRan=T
         wScrn=  0.000000 ICntrl=       500 IOpCl=  0 I1Cent=   200000004 NGrid=           0
         NMat0=    1 NMatS0=      1 NMatT0=    0 NMatD0=    1 NMtDS0=    0 NMtDT0=    0
 Symmetry not used in FoFCou.
 Harris En= -1373.28886088229    
 JPrj=0 DoOrth=F DoCkMO=F.
 Leave Link  401 at Mon Jan 31 14:41:38 2022, MaxMem= 14763950080 cpu:              67.7 elap:               4.4
@@@@@@@@@@@@@@@@@@@@@@@@@@@@@@@@@@@@@@@@@@@@@@@@@@@@@@@@@@@
@    WARNING: REMOTE HOST IDENTIFICATION HAS CHANGED!     @
@@@@@@@@@@@@@@@@@@@@@@@@@@@@@@@@@@@@@@@@@@@@@@@@@@@@@@@@@@@
IT IS POSSIBLE THAT SOMEONE IS DOING SOMETHING NASTY!
Someone could be eavesdropping on you right now (man-in-the-middle attack)!
It is also possible that a host key has just been changed.
The fingerprint for the ECDSA key sent by the remote host is
SHA256:f2KP8AiUhiSjoZQJwtowwDIcMu+ZLmeZFpD3+HOBAJY.
Please contact your system administrator.
Add correct host key in /lustre2/home/toliste/.ssh/known_hosts to get rid of this message.
Offending ECDSA key in /lustre2/home/toliste/.ssh/known_hosts:81
Password authentication is disabled to avoid man-in-the-middle attacks.
Keyboard-interactive authentication is disabled to avoid man-in-the-middle attacks.
@@@@@@@@@@@@@@@@@@@@@@@@@@@@@@@@@@@@@@@@@@@@@@@@@@@@@@@@@@@
@    WARNING: REMOTE HOST IDENTIFICATION HAS CHANGED!     @
@@@@@@@@@@@@@@@@@@@@@@@@@@@@@@@@@@@@@@@@@@@@@@@@@@@@@@@@@@@
IT IS POSSIBLE THAT SOMEONE IS DOING SOMETHING NASTY!
Someone could be eavesdropping on you right now (man-in-the-middle attack)!
It is also possible that a host key has just been changed.
The fingerprint for the ECDSA key sent by the remote host is
SHA256:dgnBxPGxIvPnmtv52Nz461ZxKC+pv3JAvCeWd7n7GkU.
Please contact your system administrator.
Add correct host key in /lustre2/home/toliste/.ssh/known_hosts to get rid of this message.
Offending ECDSA key in /lustre2/home/toliste/.ssh/known_hosts:176
Password authentication is disabled to avoid man-in-the-middle attacks.
Keyboard-interactive authentication is disabled to avoid man-in-the-middle attacks.
@@@@@@@@@@@@@@@@@@@@@@@@@@@@@@@@@@@@@@@@@@@@@@@@@@@@@@@@@@@
@    WARNING: REMOTE HOST IDENTIFICATION HAS CHANGED!     @
@@@@@@@@@@@@@@@@@@@@@@@@@@@@@@@@@@@@@@@@@@@@@@@@@@@@@@@@@@@
IT IS POSSIBLE THAT SOMEONE IS DOING SOMETHING NASTY!
Someone could be eavesdropping on you right now (man-in-the-middle attack)!
It is also possible that a host key has just been changed.
The fingerprint for the ECDSA key sent by the remote host is
SHA256:4C2GklU9klFeyvyVbg/GZyiFQHEhHQ3I/wHSOX9mLWI.
Please contact your system administrator.
Add correct host key in /lustre2/home/toliste/.ssh/known_hosts to get rid of this message.
Offending ECDSA key in /lustre2/home/toliste/.ssh/known_hosts:175
Password authentication is disabled to avoid man-in-the-middle attacks.
Keyboard-interactive authentication is disabled to avoid man-in-the-middle attacks.
@@@@@@@@@@@@@@@@@@@@@@@@@@@@@@@@@@@@@@@@@@@@@@@@@@@@@@@@@@@
@    WARNING: REMOTE HOST IDENTIFICATION HAS CHANGED!     @
@@@@@@@@@@@@@@@@@@@@@@@@@@@@@@@@@@@@@@@@@@@@@@@@@@@@@@@@@@@
IT IS POSSIBLE THAT SOMEONE IS DOING SOMETHING NASTY!
Someone could be eavesdropping on you right now (man-in-the-middle attack)!
It is also possible that a host key has just been changed.
The fingerprint for the ECDSA key sent by the remote host is
SHA256:lOyV4r17Wlw2Df+nlWfiRe3c6Dl1lyZM4RTElJTm2lM.
Please contact your system administrator.
Add correct host key in /lustre2/home/toliste/.ssh/known_hosts to get rid of this message.
Offending ECDSA key in /lustre2/home/toliste/.ssh/known_hosts:55
Password authentication is disabled to avoid man-in-the-middle attacks.
Keyboard-interactive authentication is disabled to avoid man-in-the-middle attacks.
@@@@@@@@@@@@@@@@@@@@@@@@@@@@@@@@@@@@@@@@@@@@@@@@@@@@@@@@@@@
@    WARNING: REMOTE HOST IDENTIFICATION HAS CHANGED!     @
@@@@@@@@@@@@@@@@@@@@@@@@@@@@@@@@@@@@@@@@@@@@@@@@@@@@@@@@@@@
IT IS POSSIBLE THAT SOMEONE IS DOING SOMETHING NASTY!
Someone could be eavesdropping on you right now (man-in-the-middle attack)!
It is also possible that a host key has just been changed.
The fingerprint for the ECDSA key sent by the remote host is
SHA256:+jj9ELYlSGr42IajI/Ewk5CqhDi5wHEZbIwQ/U8SvT4.
Please contact your system administrator.
Add correct host key in /lustre2/home/toliste/.ssh/known_hosts to get rid of this message.
Offending ECDSA key in /lustre2/home/toliste/.ssh/known_hosts:58
Password authentication is disabled to avoid man-in-the-middle attacks.
Keyboard-interactive authentication is disabled to avoid man-in-the-middle attacks.
@@@@@@@@@@@@@@@@@@@@@@@@@@@@@@@@@@@@@@@@@@@@@@@@@@@@@@@@@@@
@    WARNING: REMOTE HOST IDENTIFICATION HAS CHANGED!     @
@@@@@@@@@@@@@@@@@@@@@@@@@@@@@@@@@@@@@@@@@@@@@@@@@@@@@@@@@@@
IT IS POSSIBLE THAT SOMEONE IS DOING SOMETHING NASTY!
Someone could be eavesdropping on you right now (man-in-the-middle attack)!
It is also possible that a host key has just been changed.
The fingerprint for the ECDSA key sent by the remote host is
SHA256:V2zC7uomJ1j9V70RvYUmtp8ywu6gOxyHvBfpwZz4arc.
Please contact your system administrator.
Add correct host key in /lustre2/home/toliste/.ssh/known_hosts to get rid of this message.
Offending ECDSA key in /lustre2/home/toliste/.ssh/known_hosts:57
Password authentication is disabled to avoid man-in-the-middle attacks.
Keyboard-interactive authentication is disabled to avoid man-in-the-middle attacks.
@@@@@@@@@@@@@@@@@@@@@@@@@@@@@@@@@@@@@@@@@@@@@@@@@@@@@@@@@@@
@    WARNING: REMOTE HOST IDENTIFICATION HAS CHANGED!     @
@@@@@@@@@@@@@@@@@@@@@@@@@@@@@@@@@@@@@@@@@@@@@@@@@@@@@@@@@@@
IT IS POSSIBLE THAT SOMEONE IS DOING SOMETHING NASTY!
Someone could be eavesdropping on you right now (man-in-the-middle attack)!
It is also possible that a host key has just been changed.
The fingerprint for the ECDSA key sent by the remote host is
SHA256:wzPSMGS2/Y8hruU71Qam3peL67DD1EXExZtM3FCmt18.
Please contact your system administrator.
Add correct host key in /lustre2/home/toliste/.ssh/known_hosts to get rid of this message.
Offending ECDSA key in /lustre2/home/toliste/.ssh/known_hosts:54
Password authentication is disabled to avoid man-in-the-middle attacks.
Keyboard-interactive authentication is disabled to avoid man-in-the-middle attacks.
 (Enter /lustre1/prg/gaussian/bin/G16_C01_Linda_AVX/g16/linda-exe/l502.exel)
 Two-electron integral symmetry not used.
 Closed shell SCF:
 Using DIIS extrapolation, IDIIS=  1040.
 NGot= 14763950080 LenX= 14763273835 LenY= 14762942635
 Requested convergence on RMS density matrix=1.00D-08 within 128 cycles.
 Requested convergence on MAX density matrix=1.00D-06.
 Requested convergence on             energy=1.00D-06.
 No special actions if energy rises.
 Fock matrices will be formed incrementally for  20 cycles.

 Cycle   1  Pass 1  IDiag  1:
 FoFJK:  IHMeth= 1 ICntrl=       0 DoSepK=F KAlg= 0 I1Cent=           0 FoldK=F
 IRaf= 680000000 NMat=       1 IRICut=       1 DoRegI=T DoRafI=F ISym2E= 0 IDoP0=0 IntGTp=1.
 FoFCou: FMM=F IPFlag=           0 FMFlag=      100000 FMFlg1=           0
         NFxFlg=           0 DoJE=F BraDBF=F KetDBF=F FulRan=T
         wScrn=  0.000000 ICntrl=         0 IOpCl=  0 I1Cent=           0 NGrid=           0
         NMat0=    1 NMatS0=      1 NMatT0=    0 NMatD0=    1 NMtDS0=    0 NMtDT0=    0
 Symmetry not used in FoFCou.
 Inv3:  Mode=1 IEnd=    43479747.
 Iteration    1 A*A^-1 deviation from unit magnitude is 1.37D-14 for   3805.
 Iteration    1 A*A^-1 deviation from orthogonality  is 3.86D-15 for   3805   1510.
 Iteration    1 A^-1*A deviation from unit magnitude is 1.37D-14 for   3805.
 Iteration    1 A^-1*A deviation from orthogonality  is 2.11D-15 for   3791   1611.
 E= -1373.64103488258    
 DIIS: error= 3.98D-02 at cycle   1 NSaved=   1.
 NSaved= 1 IEnMin= 1 EnMin= -1373.64103488258     IErMin= 1 ErrMin= 3.98D-02
 ErrMax= 3.98D-02  0.00D+00 EMaxC= 1.00D-01 BMatC= 5.16D-01 BMatP= 5.16D-01
 IDIUse=3 WtCom= 6.02D-01 WtEn= 3.98D-01
 Coeff-Com:  0.100D+01
 Coeff-En:   0.100D+01
 Coeff:      0.100D+01
 Gap=     0.147 Goal=   None    Shift=    0.000
 GapD=    0.147 DampG=1.000 DampE=0.500 DampFc=0.5000 IDamp=-1.
 Damping current iteration by 5.00D-01
 RMSDP=3.22D-03 MaxDP=1.25D-01              OVMax= 1.58D-01

 Cycle   2  Pass 1  IDiag  1:
 RMSU=  1.51D-03    CP:  9.63D-01
 E= -1373.91575196453     Delta-E=       -0.274717081954 Rises=F Damp=T
 DIIS: error= 7.89D-03 at cycle   2 NSaved=   2.
 NSaved= 2 IEnMin= 2 EnMin= -1373.91575196453     IErMin= 2 ErrMin= 7.89D-03
 ErrMax= 7.89D-03  0.00D+00 EMaxC= 1.00D-01 BMatC= 4.41D-02 BMatP= 5.16D-01
 IDIUse=3 WtCom= 9.21D-01 WtEn= 7.89D-02
 Coeff-Com: -0.148D+00 0.115D+01
 Coeff-En:   0.000D+00 0.100D+01
 Coeff:     -0.137D+00 0.114D+01
 Gap=     0.173 Goal=   None    Shift=    0.000
 RMSDP=1.10D-03 MaxDP=5.73D-02 DE=-2.75D-01 OVMax= 8.67D-02

 Cycle   3  Pass 1  IDiag  1:
 RMSU=  7.80D-04    CP:  9.36D-01  1.45D+00
 E= -1374.15598152298     Delta-E=       -0.240229558445 Rises=F Damp=F
 DIIS: error= 4.14D-03 at cycle   3 NSaved=   3.
 NSaved= 3 IEnMin= 3 EnMin= -1374.15598152298     IErMin= 3 ErrMin= 4.14D-03
 ErrMax= 4.14D-03  0.00D+00 EMaxC= 1.00D-01 BMatC= 1.59D-02 BMatP= 4.41D-02
 IDIUse=3 WtCom= 9.59D-01 WtEn= 4.14D-02
 Coeff-Com: -0.114D+00 0.456D+00 0.658D+00
 Coeff-En:   0.000D+00 0.000D+00 0.100D+01
 Coeff:     -0.109D+00 0.437D+00 0.672D+00
 Gap=     0.151 Goal=   None    Shift=    0.000
 RMSDP=3.13D-04 MaxDP=1.78D-02 DE=-2.40D-01 OVMax= 4.14D-02

 Cycle   4  Pass 1  IDiag  1:
 RMSU=  2.34D-04    CP:  9.38D-01  1.48D+00  7.39D-01
 E= -1374.16757315030     Delta-E=       -0.011591627323 Rises=F Damp=F
 DIIS: error= 2.26D-03 at cycle   4 NSaved=   4.
 NSaved= 4 IEnMin= 4 EnMin= -1374.16757315030     IErMin= 4 ErrMin= 2.26D-03
 ErrMax= 2.26D-03  0.00D+00 EMaxC= 1.00D-01 BMatC= 3.70D-03 BMatP= 1.59D-02
 IDIUse=3 WtCom= 9.77D-01 WtEn= 2.26D-02
 Coeff-Com: -0.398D-01 0.109D+00 0.361D+00 0.570D+00
 Coeff-En:   0.000D+00 0.000D+00 0.177D+00 0.823D+00
 Coeff:     -0.389D-01 0.107D+00 0.357D+00 0.575D+00
 Gap=     0.153 Goal=   None    Shift=    0.000
 RMSDP=1.18D-04 MaxDP=7.65D-03 DE=-1.16D-02 OVMax= 1.79D-02

 Cycle   5  Pass 1  IDiag  1:
 RMSU=  5.86D-05    CP:  9.37D-01  1.48D+00  8.15D-01  6.51D-01
 E= -1374.17106456527     Delta-E=       -0.003491414973 Rises=F Damp=F
 DIIS: error= 4.52D-04 at cycle   5 NSaved=   5.
 NSaved= 5 IEnMin= 5 EnMin= -1374.17106456527     IErMin= 5 ErrMin= 4.52D-04
 ErrMax= 4.52D-04  0.00D+00 EMaxC= 1.00D-01 BMatC= 1.78D-04 BMatP= 3.70D-03
 IDIUse=3 WtCom= 9.95D-01 WtEn= 4.52D-03
 Coeff-Com: -0.924D-02 0.151D-01 0.112D+00 0.259D+00 0.623D+00
 Coeff-En:   0.000D+00 0.000D+00 0.000D+00 0.000D+00 0.100D+01
 Coeff:     -0.920D-02 0.151D-01 0.111D+00 0.258D+00 0.625D+00
 Gap=     0.153 Goal=   None    Shift=    0.000
 RMSDP=2.73D-05 MaxDP=1.75D-03 DE=-3.49D-03 OVMax= 2.92D-03

 Cycle   6  Pass 1  IDiag  1:
 RMSU=  1.85D-05    CP:  9.37D-01  1.48D+00  8.20D-01  6.93D-01  7.18D-01
 E= -1374.17123714749     Delta-E=       -0.000172582219 Rises=F Damp=F
 DIIS: error= 1.30D-04 at cycle   6 NSaved=   6.
 NSaved= 6 IEnMin= 6 EnMin= -1374.17123714749     IErMin= 6 ErrMin= 1.30D-04
 ErrMax= 1.30D-04  0.00D+00 EMaxC= 1.00D-01 BMatC= 1.08D-05 BMatP= 1.78D-04
 IDIUse=3 WtCom= 9.99D-01 WtEn= 1.30D-03
 Coeff-Com: -0.156D-02 0.343D-03 0.241D-01 0.696D-01 0.258D+00 0.650D+00
 Coeff-En:   0.000D+00 0.000D+00 0.000D+00 0.000D+00 0.000D+00 0.100D+01
 Coeff:     -0.156D-02 0.343D-03 0.241D-01 0.695D-01 0.258D+00 0.650D+00
 Gap=     0.154 Goal=   None    Shift=    0.000
 RMSDP=8.06D-06 MaxDP=2.98D-04 DE=-1.73D-04 OVMax= 1.64D-03

 Cycle   7  Pass 1  IDiag  1:
 RMSU=  6.36D-06    CP:  9.37D-01  1.48D+00  8.21D-01  6.94D-01  7.88D-01
                    CP:  8.72D-01
 E= -1374.17124937301     Delta-E=       -0.000012225516 Rises=F Damp=F
 DIIS: error= 3.76D-05 at cycle   7 NSaved=   7.
 NSaved= 7 IEnMin= 7 EnMin= -1374.17124937301     IErMin= 7 ErrMin= 3.76D-05
 ErrMax= 3.76D-05  0.00D+00 EMaxC= 1.00D-01 BMatC= 1.05D-06 BMatP= 1.08D-05
 IDIUse=1 WtCom= 1.00D+00 WtEn= 0.00D+00
 Coeff-Com:  0.594D-03-0.186D-02-0.478D-02-0.604D-02 0.150D-01 0.223D+00
 Coeff-Com:  0.774D+00
 Coeff:      0.594D-03-0.186D-02-0.478D-02-0.604D-02 0.150D-01 0.223D+00
 Coeff:      0.774D+00
 Gap=     0.154 Goal=   None    Shift=    0.000
 RMSDP=3.22D-06 MaxDP=1.24D-04 DE=-1.22D-05 OVMax= 5.84D-04

 Cycle   8  Pass 1  IDiag  1:
 RMSU=  2.29D-06    CP:  9.37D-01  1.48D+00  8.21D-01  6.98D-01  8.00D-01
                    CP:  9.73D-01  1.01D+00
 E= -1374.17125079571     Delta-E=       -0.000001422704 Rises=F Damp=F
 DIIS: error= 1.79D-05 at cycle   8 NSaved=   8.
 NSaved= 8 IEnMin= 8 EnMin= -1374.17125079571     IErMin= 8 ErrMin= 1.79D-05
 ErrMax= 1.79D-05  0.00D+00 EMaxC= 1.00D-01 BMatC= 2.17D-07 BMatP= 1.05D-06
 IDIUse=1 WtCom= 1.00D+00 WtEn= 0.00D+00
 Coeff-Com:  0.600D-03-0.101D-02-0.663D-02-0.155D-01-0.398D-01-0.465D-02
 Coeff-Com:  0.366D+00 0.701D+00
 Coeff:      0.600D-03-0.101D-02-0.663D-02-0.155D-01-0.398D-01-0.465D-02
 Coeff:      0.366D+00 0.701D+00
 Gap=     0.154 Goal=   None    Shift=    0.000
 RMSDP=1.41D-06 MaxDP=6.65D-05 DE=-1.42D-06 OVMax= 3.74D-04

 Cycle   9  Pass 1  IDiag  1:
 RMSU=  7.36D-07    CP:  9.37D-01  1.48D+00  8.22D-01  6.99D-01  8.08D-01
                    CP:  1.01D+00  1.11D+00  7.88D-01
 E= -1374.17125111267     Delta-E=       -0.000000316960 Rises=F Damp=F
 DIIS: error= 3.28D-06 at cycle   9 NSaved=   9.
 NSaved= 9 IEnMin= 9 EnMin= -1374.17125111267     IErMin= 9 ErrMin= 3.28D-06
 ErrMax= 3.28D-06  0.00D+00 EMaxC= 1.00D-01 BMatC= 1.16D-08 BMatP= 2.17D-07
 IDIUse=1 WtCom= 1.00D+00 WtEn= 0.00D+00
 Coeff-Com:  0.156D-03-0.211D-03-0.172D-02-0.443D-02-0.136D-01-0.117D-01
 Coeff-Com:  0.614D-01 0.231D+00 0.739D+00
 Coeff:      0.156D-03-0.211D-03-0.172D-02-0.443D-02-0.136D-01-0.117D-01
 Coeff:      0.614D-01 0.231D+00 0.739D+00
 Gap=     0.154 Goal=   None    Shift=    0.000
 RMSDP=3.60D-07 MaxDP=2.46D-05 DE=-3.17D-07 OVMax= 5.41D-05

 Cycle  10  Pass 1  IDiag  1:
 RMSU=  2.52D-07    CP:  9.37D-01  1.48D+00  8.22D-01  6.99D-01  8.08D-01
                    CP:  1.01D+00  1.13D+00  8.62D-01  9.80D-01
 E= -1374.17125112772     Delta-E=       -0.000000015049 Rises=F Damp=F
 DIIS: error= 1.60D-06 at cycle  10 NSaved=  10.
 NSaved=10 IEnMin=10 EnMin= -1374.17125112772     IErMin=10 ErrMin= 1.60D-06
 ErrMax= 1.60D-06  0.00D+00 EMaxC= 1.00D-01 BMatC= 2.72D-09 BMatP= 1.16D-08
 IDIUse=1 WtCom= 1.00D+00 WtEn= 0.00D+00
 Coeff-Com: -0.190D-04 0.540D-04 0.268D-03 0.445D-03-0.861D-04-0.436D-02
 Coeff-Com: -0.336D-01 0.150D-02 0.350D+00 0.686D+00
 Coeff:     -0.190D-04 0.540D-04 0.268D-03 0.445D-03-0.861D-04-0.436D-02
 Coeff:     -0.336D-01 0.150D-02 0.350D+00 0.686D+00
 Gap=     0.154 Goal=   None    Shift=    0.000
 RMSDP=1.42D-07 MaxDP=7.28D-06 DE=-1.50D-08 OVMax= 3.52D-05

 Cycle  11  Pass 1  IDiag  1:
 RMSU=  9.14D-08    CP:  9.37D-01  1.48D+00  8.22D-01  6.99D-01  8.09D-01
                    CP:  1.02D+00  1.13D+00  8.77D-01  1.09D+00  8.89D-01
 E= -1374.17125113137     Delta-E=       -0.000000003652 Rises=F Damp=F
 DIIS: error= 5.21D-07 at cycle  11 NSaved=  11.
 NSaved=11 IEnMin=11 EnMin= -1374.17125113137     IErMin=11 ErrMin= 5.21D-07
 ErrMax= 5.21D-07  0.00D+00 EMaxC= 1.00D-01 BMatC= 2.71D-10 BMatP= 2.72D-09
 IDIUse=1 WtCom= 1.00D+00 WtEn= 0.00D+00
 Coeff-Com: -0.259D-04 0.467D-04 0.313D-03 0.710D-03 0.152D-02-0.345D-03
 Coeff-Com: -0.227D-01-0.257D-01 0.461D-01 0.284D+00 0.716D+00
 Coeff:     -0.259D-04 0.467D-04 0.313D-03 0.710D-03 0.152D-02-0.345D-03
 Coeff:     -0.227D-01-0.257D-01 0.461D-01 0.284D+00 0.716D+00
 Gap=     0.154 Goal=   None    Shift=    0.000
 RMSDP=4.91D-08 MaxDP=2.09D-06 DE=-3.65D-09 OVMax= 9.53D-06

 Cycle  12  Pass 1  IDiag  1:
 RMSU=  2.85D-08    CP:  9.37D-01  1.48D+00  8.22D-01  6.99D-01  8.09D-01
                    CP:  1.02D+00  1.14D+00  8.82D-01  1.12D+00  9.87D-01
                    CP:  9.22D-01
 E= -1374.17125113169     Delta-E=       -0.000000000322 Rises=F Damp=F
 DIIS: error= 1.75D-07 at cycle  12 NSaved=  12.
 NSaved=12 IEnMin=12 EnMin= -1374.17125113169     IErMin=12 ErrMin= 1.75D-07
 ErrMax= 1.75D-07  0.00D+00 EMaxC= 1.00D-01 BMatC= 2.09D-11 BMatP= 2.71D-10
 IDIUse=1 WtCom= 1.00D+00 WtEn= 0.00D+00
 Coeff-Com: -0.649D-05 0.100D-04 0.803D-04 0.195D-03 0.488D-03 0.349D-03
 Coeff-Com: -0.481D-02-0.653D-02-0.156D-01 0.475D-01 0.256D+00 0.722D+00
 Coeff:     -0.649D-05 0.100D-04 0.803D-04 0.195D-03 0.488D-03 0.349D-03
 Coeff:     -0.481D-02-0.653D-02-0.156D-01 0.475D-01 0.256D+00 0.722D+00
 Gap=     0.154 Goal=   None    Shift=    0.000
 RMSDP=1.20D-08 MaxDP=6.93D-07 DE=-3.22D-10 OVMax= 3.16D-06

 Cycle  13  Pass 1  IDiag  1:
 RMSU=  8.38D-09    CP:  9.37D-01  1.48D+00  8.22D-01  6.99D-01  8.09D-01
                    CP:  1.02D+00  1.14D+00  8.83D-01  1.12D+00  1.00D+00
                    CP:  9.92D-01  9.59D-01
 E= -1374.17125113172     Delta-E=       -0.000000000021 Rises=F Damp=F
 DIIS: error= 4.80D-08 at cycle  13 NSaved=  13.
 NSaved=13 IEnMin=13 EnMin= -1374.17125113172     IErMin=13 ErrMin= 4.80D-08
 ErrMax= 4.80D-08  0.00D+00 EMaxC= 1.00D-01 BMatC= 2.48D-12 BMatP= 2.09D-11
 IDIUse=1 WtCom= 1.00D+00 WtEn= 0.00D+00
 Coeff-Com:  0.104D-05-0.231D-05-0.106D-04-0.222D-04-0.223D-04 0.160D-03
 Coeff-Com:  0.796D-03 0.141D-02-0.120D-01-0.159D-01-0.169D-01 0.193D+00
 Coeff-Com:  0.850D+00
 Coeff:      0.104D-05-0.231D-05-0.106D-04-0.222D-04-0.223D-04 0.160D-03
 Coeff:      0.796D-03 0.141D-02-0.120D-01-0.159D-01-0.169D-01 0.193D+00
 Coeff:      0.850D+00
 Gap=     0.154 Goal=   None    Shift=    0.000
 RMSDP=5.94D-09 MaxDP=1.75D-07 DE=-2.14D-11 OVMax= 1.26D-06

 Error on total polarization charges =  0.01593
 SCF Done:  E(RM062X) =  -1374.17125113     A.U. after   13 cycles
            NFock= 13  Conv=0.59D-08     -V/T= 2.0063
 KE= 1.365507750621D+03 PE=-8.895293751134D+03 EE= 3.308041066651D+03
 Leave Link  502 at Mon Jan 31 14:43:32 2022, MaxMem= 14763950080 cpu:            1694.7 elap:             111.7
 (Enter /lustre1/prg/gaussian/bin/G16_C01_Linda_AVX/g16/l801.exe)
 DoSCS=F DFT=T ScalE2(SS,OS)=  1.000000  1.000000
 ExpMin= 9.54D-02 ExpMax= 1.47D+04 ExpMxC= 5.03D+02 IAcc=3 IRadAn=         5 AccDes= 0.00D+00
 HarFok:  IExCor=  205 AccDes= 0.00D+00 IRadAn=         5 IDoV=-2 UseB2=F ITyADJ=14
 ICtDFT= 12500011 ScaDFX=  1.000000  1.000000  1.000000  1.000000
 GSVD:  LWork=       -1280 too small for GESVD, short by        5600 words or        5600 for optimal perf.
 Largest valence mixing into a core orbital is  7.99D-05
 Largest core mixing into a valence orbital is  5.12D-05
 Range of M.O.s used for correlation:    33   543
 NBasis=   543 NAE=   109 NBE=   109 NFC=    32 NFV=     0
 NROrb=    511 NOA=    77 NOB=    77 NVA=   434 NVB=   434

 **** Warning!!: The largest alpha MO coefficient is  0.13906175D+02

 Leave Link  801 at Mon Jan 31 14:43:32 2022, MaxMem= 14763950080 cpu:               4.8 elap:               0.3
@@@@@@@@@@@@@@@@@@@@@@@@@@@@@@@@@@@@@@@@@@@@@@@@@@@@@@@@@@@
@    WARNING: REMOTE HOST IDENTIFICATION HAS CHANGED!     @
@@@@@@@@@@@@@@@@@@@@@@@@@@@@@@@@@@@@@@@@@@@@@@@@@@@@@@@@@@@
IT IS POSSIBLE THAT SOMEONE IS DOING SOMETHING NASTY!
Someone could be eavesdropping on you right now (man-in-the-middle attack)!
It is also possible that a host key has just been changed.
The fingerprint for the ECDSA key sent by the remote host is
SHA256:dgnBxPGxIvPnmtv52Nz461ZxKC+pv3JAvCeWd7n7GkU.
[...]
 Alpha virt. eigenvalues --    1.11723   1.11825   1.12218   1.12477   1.12805
 Alpha virt. eigenvalues --    1.13148   1.13847   1.15850   1.16349   1.17374
 Alpha virt. eigenvalues --    1.18785   1.20128   1.22200   1.22287   1.24378
 Alpha virt. eigenvalues --    1.28257   1.30898   1.31404   1.32198   1.32760
 Alpha virt. eigenvalues --    1.33393   1.34138   1.34906   1.35407   1.35679
 Alpha virt. eigenvalues --    1.35828   1.36318   1.36459   1.37649   1.38805
 Alpha virt. eigenvalues --    1.39338   1.40185   1.40363   1.41384   1.41780
 Alpha virt. eigenvalues --    1.42349   1.43638   1.45634   1.47741   1.48611
 Alpha virt. eigenvalues --    1.49016   1.50232   1.50459   1.50890   1.51491
 Alpha virt. eigenvalues --    1.51918   1.52395   1.52546   1.52772   1.53207
 Alpha virt. eigenvalues --    1.53506   1.54564   1.54649   1.54816   1.55503
 Alpha virt. eigenvalues --    1.56187   1.57666   1.58844   1.59376   1.61290
 Alpha virt. eigenvalues --    1.61690   1.62298   1.62410   1.62806   1.63294
 Alpha virt. eigenvalues --    1.63632   1.64388   1.64480   1.64552   1.64745
 Alpha virt. eigenvalues --    1.64990   1.65578   1.66097   1.66371   1.66485
 Alpha virt. eigenvalues --    1.66849   1.67489   1.67599   1.67970   1.68594
 Alpha virt. eigenvalues --    1.68990   1.69664   1.69871   1.70256   1.70874
 Alpha virt. eigenvalues --    1.71389   1.71496   1.72458   1.73706   1.74245
 Alpha virt. eigenvalues --    1.74743   1.75331   1.75574   1.76817   1.77184
 Alpha virt. eigenvalues --    1.78021   1.78440   1.78717   1.78964   1.79420
 Alpha virt. eigenvalues --    1.79877   1.80290   1.80592   1.81021   1.81462
 Alpha virt. eigenvalues --    1.82318   1.82584   1.83372   1.84082   1.84601
 Alpha virt. eigenvalues --    1.85378   1.85785   1.86522   1.87187   1.87258
 Alpha virt. eigenvalues --    1.87689   1.87897   1.88392   1.88702   1.88995
 Alpha virt. eigenvalues --    1.89112   1.89529   1.90362   1.90496   1.90969
 Alpha virt. eigenvalues --    1.91153   1.92055   1.92724   1.94250   1.94745
 Alpha virt. eigenvalues --    1.95655   1.97396   1.97885   1.97970   1.99401
 Alpha virt. eigenvalues --    1.99804   2.00067   2.00328   2.00658   2.01851
 Alpha virt. eigenvalues --    2.02372   2.02596   2.03221   2.03604   2.03771
 Alpha virt. eigenvalues --    2.03968   2.06927   2.08157   2.10457   2.10643
 Alpha virt. eigenvalues --    2.12237   2.13537   2.15543   2.15593   2.16159
 Alpha virt. eigenvalues --    2.18030   2.18678   2.20955   2.22214   2.22538
 Alpha virt. eigenvalues --    2.23161   2.23257   2.26378   2.27815   2.29158
 Alpha virt. eigenvalues --    2.29884   2.30629   2.31699   2.31952   2.33506
 Alpha virt. eigenvalues --    2.35197   2.35731   2.37573   2.39750   2.40069
 Alpha virt. eigenvalues --    2.40260   2.41046   2.41871   2.42985   2.43543
 Alpha virt. eigenvalues --    2.45348   2.45612   2.46351   2.46640   2.46792
 Alpha virt. eigenvalues --    2.47554   2.49088   2.49232   2.49341   2.50789
 Alpha virt. eigenvalues --    2.52278   2.55640   2.56036   2.58007   2.64309
 Alpha virt. eigenvalues --    2.65576   2.65969   2.66096   2.69026   2.69748
 Alpha virt. eigenvalues --    2.71543   2.71926   2.73040   2.73146   2.74061
 Alpha virt. eigenvalues --    2.75967   2.76390   2.81996   2.83441   2.85459
 Alpha virt. eigenvalues --    2.85855   2.88855   2.89197   2.92684   2.95629
 Alpha virt. eigenvalues --    2.95890   3.00246   3.09620   3.11655   3.14653
 Alpha virt. eigenvalues --    3.17155   3.56660   3.59473   3.59743   3.68052
 Alpha virt. eigenvalues --    3.68330   3.71641   3.74631   3.75321   3.90507
 Alpha virt. eigenvalues --    4.01612   4.05624   4.13357   4.14251
          Condensed to atoms (all electrons):
 Mulliken charges:
               1
     1  N   -0.180765
     2  C    0.113594
     3  C   -0.029193
     4  C   -0.079465
     5  C    0.118509
     6  C    0.001760
     7  C    0.007556
     8  C    0.005014
     9  C    0.006288
    10  C   -0.002901
    11  C   -0.091321
    12  C    0.113767
    13  C    0.112674
    14  C   -0.071695
    15  C   -0.031308
    16  C    0.113072
    17  N   -0.176931
    18  F   -0.238678
    19  B    0.178730
    20  F   -0.231986
    21  H    0.066516
    22  H    0.033894
    23  H    0.023159
    24  H    0.030490
    25  H    0.030256
    26  H    0.030470
    27  H    0.025942
    28  H    0.033455
    29  H    0.065930
    30  C    0.011747
    31  C   -0.041375
    32  C   -0.045668
    33  C    0.010334
    34  C    0.009606
    35  C   -0.008047
    36  H    0.010996
    37  H    0.009921
    38  H    0.018378
    39  H    0.018811
    40  H    0.017059
    41  C    0.012809
    42  C   -0.041796
    43  C   -0.046084
    44  C    0.010215
    45  C    0.009658
    46  C   -0.008419
    47  H    0.011144
    48  H    0.009892
    49  H    0.018361
    50  H    0.018682
    51  H    0.016945
 Sum of Mulliken charges =  -0.00000
 Mulliken charges with hydrogens summed into heavy atoms:
               1
     1  N   -0.180765
     2  C    0.180110
     3  C   -0.029193
     4  C   -0.045571
     5  C    0.118509
     6  C    0.024920
     7  C    0.038046
     8  C    0.035270
     9  C    0.036758
    10  C    0.023041
    11  C   -0.091321
    12  C    0.113767
    13  C    0.112674
    14  C   -0.038240
    15  C   -0.031308
    16  C    0.179001
    17  N   -0.176931
    18  F   -0.238678
    19  B    0.178730
    20  F   -0.231986
    30  C    0.011747
    31  C   -0.030379
    32  C   -0.035747
    33  C    0.028712
    34  C    0.028417
    35  C    0.009012
    41  C    0.012809
    42  C   -0.030652
    43  C   -0.036193
    44  C    0.028576
    45  C    0.028339
    46  C    0.008526
 Electronic spatial extent (au):  <R**2>=         179719.7988
 Charge=              0.0000 electrons
 Dipole moment (field-independent basis, Debye):
    X=              1.1516    Y=              7.0977    Z=              1.4676  Tot=              7.3388
 Quadrupole moment (field-independent basis, Debye-Ang):
   XX=           -137.6347   YY=           -274.0406   ZZ=           -177.9256
   XY=             71.1510   XZ=             -4.4815   YZ=            -15.5392
 Traceless Quadrupole moment (field-independent basis, Debye-Ang):
   XX=             58.8989   YY=            -77.5069   ZZ=             18.6080
   XY=             71.1510   XZ=             -4.4815   YZ=            -15.5392
 Octapole moment (field-independent basis, Debye-Ang**2):
  XXX=          -5353.6098  YYY=           5407.4065  ZZZ=             20.6366  XYY=          -3109.4257
  XXY=           2045.5041  XXZ=           -327.1440  XZZ=          -2121.9264  YZZ=           1435.0765
  YYZ=            166.6047  XYZ=             23.0328
 Hexadecapole moment (field-independent basis, Debye-Ang**3):
 XXXX=        -140307.0246 YYYY=         -86973.1450 ZZZZ=          -8715.7241 XXXY=          54237.4102
 XXXZ=          -3529.0945 YYYX=          62606.3166 YYYZ=          -1744.4207 ZZZX=           4169.2578
 ZZZY=           -198.7262 XXYY=         -48632.0658 XXZZ=         -27689.8319 YYZZ=         -13766.7161
 XXYZ=           2871.8021 YYXZ=           1303.8863 ZZXY=          17136.6186
 N-N= 2.846298673797D+03 E-N=-8.892709698288D+03  KE= 1.365464555155D+03

 **********************************************************************

            Population analysis using the CI Rho(1) Density.

 **********************************************************************

          Condensed to atoms (all electrons):
 Mulliken charges:
               1
     1  N   -0.181118
     2  C    0.112584
     3  C    0.052115
     4  C   -0.188919
     5  C    0.239778
     6  C   -0.019331
     7  C    0.006152
     8  C   -0.015259
     9  C    0.005086
    10  C   -0.024916
    11  C   -0.096662
    12  C   -0.162569
    13  C    0.233627
    14  C   -0.179411
    15  C    0.051250
    16  C    0.113591
    17  N   -0.177099
    18  F   -0.239566
    19  B    0.171660
    20  F   -0.234095
    21  H    0.066076
    22  H    0.032658
    23  H    0.023265
    24  H    0.030120
    25  H    0.030125
    26  H    0.030113
    27  H    0.025875
    28  H    0.032032
    29  H    0.065466
    30  C    0.028326
    31  C   -0.023948
    32  C   -0.023030
    33  C    0.013264
    34  C    0.010086
    35  C    0.018512
    36  H    0.011033
    37  H    0.009920
    38  H    0.018376
    39  H    0.018803
    40  H    0.017189
    41  C    0.029298
    42  C   -0.024060
    43  C   -0.023246
    44  C    0.013178
    45  C    0.010148
    46  C    0.018389
    47  H    0.011118
    48  H    0.009905
    49  H    0.018360
    50  H    0.018674
    51  H    0.017078
 Sum of Mulliken charges =  -0.00000
 Mulliken charges with hydrogens summed into heavy atoms:
               1
     1  N   -0.181118
     2  C    0.178660
     3  C    0.052115
     4  C   -0.156260
     5  C    0.239778
     6  C    0.003934
     7  C    0.036271
     8  C    0.014867
     9  C    0.035199
    10  C    0.000959
    11  C   -0.096662
    12  C   -0.162569
    13  C    0.233627
    14  C   -0.147380
    15  C    0.051250
    16  C    0.179057
    17  N   -0.177099
    18  F   -0.239566
    19  B    0.171660
    20  F   -0.234095
    30  C    0.028326
    31  C   -0.012914
    32  C   -0.013110
    33  C    0.031640
    34  C    0.028889
    35  C    0.035701
    41  C    0.029298
    42  C   -0.012942
    43  C   -0.013341
    44  C    0.031538
    45  C    0.028822
    46  C    0.035467
 Electronic spatial extent (au):  <R**2>=         179645.7705
 Charge=              0.0000 electrons
 Dipole moment (field-independent basis, Debye):
    X=              1.4332    Y=              3.2329    Z=              1.8030  Tot=              3.9694
 Quadrupole moment (field-independent basis, Debye-Ang):
   XX=           -111.7845   YY=           -216.7948   ZZ=           -161.4510
   XY=             23.4343   XZ=            -18.3888   YZ=            -18.7453
 Traceless Quadrupole moment (field-independent basis, Debye-Ang):
   XX=             51.5589   YY=            -53.4514   ZZ=              1.8924
   XY=             23.4343   XZ=            -18.3888   YZ=            -18.7453
 Octapole moment (field-independent basis, Debye-Ang**2):
  XXX=          -4538.5641  YYY=           4752.7352  ZZZ=             33.7700  XYY=          -2417.9487
  XXY=           1279.7004  XXZ=           -707.5249  XZZ=          -1931.3962  YZZ=           1282.5381
  YYZ=            197.8571  XYZ=            148.0045
 Hexadecapole moment (field-independent basis, Debye-Ang**3):
 XXXX=        -121092.1634 YYYY=         -80184.5262 ZZZZ=          -8347.3262 XXXY=          40559.1416
 XXXZ=         -11047.2499 YYYX=          54761.0495 YYYZ=          -2053.6163 ZZZX=           3965.7154
 ZZZY=           -322.8063 XXYY=         -38643.6142 XXZZ=         -25115.9311 YYZZ=         -12358.4796
 XXYZ=           6310.5247 YYXZ=            184.0458 ZZXY=          15377.4351
 N-N= 2.846298673797D+03 E-N=-8.893470208389D+03  KE= 1.365557110991D+03

 **********************************************************************

            Population analysis using the CI Density.

 **********************************************************************

          Condensed to atoms (all electrons):
 Mulliken charges:
               1
     1  N   -0.182691
     2  C    0.112942
     3  C   -0.008026
     4  C   -0.111847
     5  C    0.152639
     6  C   -0.008902
     7  C    0.002710
     8  C   -0.010251
     9  C    0.001617
    10  C   -0.014292
    11  C   -0.086345
    12  C    0.045395
    13  C    0.145968
    14  C   -0.103320
    15  C   -0.009831
    16  C    0.113101
    17  N   -0.178732
    18  F   -0.239585
    19  B    0.172369
    20  F   -0.233605
    21  H    0.065134
    22  H    0.022825
    23  H    0.012248
    24  H    0.022632
    25  H    0.021233
    26  H    0.022617
    27  H    0.015202
    28  H    0.022318
    29  H    0.064762
    30  C    0.008185
    31  C   -0.028942
    32  C   -0.030513
    33  C    0.013201
    34  C    0.010979
    35  C    0.005781
    36  H    0.017904
    37  H    0.016804
    38  H    0.023637
    39  H    0.023901
    40  H    0.024572
    41  C    0.009022
    42  C   -0.029076
    43  C   -0.030766
    44  C    0.013144
    45  C    0.011072
    46  C    0.005600
    47  H    0.018116
    48  H    0.016926
    49  H    0.023723
    50  H    0.023865
    51  H    0.024582
 Sum of Mulliken charges =  -0.00000
 Mulliken charges with hydrogens summed into heavy atoms:
               1
     1  N   -0.182691
     2  C    0.178075
     3  C   -0.008026
     4  C   -0.089022
     5  C    0.152639
     6  C    0.003346
     7  C    0.025342
     8  C    0.010982
     9  C    0.024234
    10  C    0.000910
    11  C   -0.086345
    12  C    0.045395
    13  C    0.145968
    14  C   -0.081002
    15  C   -0.009831
    16  C    0.177863
    17  N   -0.178732
    18  F   -0.239585
    19  B    0.172369
    20  F   -0.233605
    30  C    0.008185
    31  C   -0.011038
    32  C   -0.013709
    33  C    0.036838
    34  C    0.034880
    35  C    0.030353
    41  C    0.009022
    42  C   -0.010960
    43  C   -0.013840
    44  C    0.036867
    45  C    0.034937
    46  C    0.030182
 Electronic spatial extent (au):  <R**2>=         179662.5807
 Charge=             -0.0000 electrons
 Dipole moment (field-independent basis, Debye):
    X=              1.3942    Y=              4.1596    Z=              1.7338  Tot=              4.7172
 Quadrupole moment (field-independent basis, Debye-Ang):
   XX=           -115.7853   YY=           -233.3460   ZZ=           -163.5093
   XY=             34.6674   XZ=            -17.0296   YZ=            -18.2697
 Traceless Quadrupole moment (field-independent basis, Debye-Ang):
   XX=             55.0949   YY=            -62.4658   ZZ=              7.3709
   XY=             34.6674   XZ=            -17.0296   YZ=            -18.2697
 Octapole moment (field-independent basis, Debye-Ang**2):
  XXX=          -4663.2658  YYY=           4954.6168  ZZZ=             35.0346  XYY=          -2614.8931
  XXY=           1441.7742  XXZ=           -665.4916  XZZ=          -1956.3662  YZZ=           1301.7945
  YYZ=            194.5868  XYZ=            132.5107
 Hexadecapole moment (field-independent basis, Debye-Ang**3):
 XXXX=        -123850.3854 YYYY=         -82270.4458 ZZZZ=          -8307.1806 XXXY=          43120.3813
 XXXZ=         -10275.4895 YYYX=          57146.7214 YYYZ=          -2034.1771 ZZZX=           3948.4632
 ZZZY=           -336.7546 XXYY=         -41199.9239 XXZZ=         -25389.3947 YYZZ=         -12522.6332
 XXYZ=           5876.0453 YYXZ=            326.8673 ZZXY=          15611.7929
 N-N= 2.846298673797D+03 E-N=-8.893248495993D+03  KE= 1.365563075337D+03
 No NMR shielding tensors so no spin-rotation constants.
 Leave Link  601 at Mon Jan 31 19:32:20 2022, MaxMem= 14763950080 cpu:              11.3 elap:               0.9
 (Enter /lustre1/prg/gaussian/bin/G16_C01_Linda_AVX/g16/l9999.exe)
 Electronic transition elements 
                 1             2             3             4             5 
      1  -0.137409D+04 -0.137405D+04 -0.137404D+04 -0.137403D+04 -0.137402D+04
      2   0.297034D+01 -0.115189D+00  0.137020D+01 -0.201651D-01 -0.210622D+00
      3   0.390341D-01  0.170457D+01  0.335829D-01  0.165657D+01  0.465483D-01
      4  -0.271384D+01  0.171858D-02 -0.125364D+01 -0.425472D-01 -0.205299D+00
      5  -0.249538D+00  0.128863D-01 -0.185862D+00  0.316700D-02  0.380987D-01
      6  -0.331414D-02 -0.202515D+00 -0.448695D-02 -0.233346D+00 -0.710741D-02
      7   0.226897D+00 -0.166008D-02  0.169335D+00  0.633994D-02  0.315126D-01
      8  -0.301861D+01 -0.843252D-02 -0.277475D+01 -0.184722D+00 -0.388654D+00
      9  -0.500060D+01  0.690278D-02 -0.363589D+01 -0.188440D+00 -0.679465D+00
     10  -0.338951D+01 -0.431293D+01 -0.310555D+01 -0.506939D+01 -0.159815D+00
     11  -0.113092D+02  0.187678D+01 -0.831369D+01  0.687446D+00  0.166154D+01
     12   0.119944D+00  0.558845D+01  0.158364D+00  0.548355D+01  0.143597D+00
     13   0.993463D-01  0.116863D+01  0.393427D-01  0.565935D+00  0.622203D-02
     14   0.420846D+01 -0.467957D+01  0.290520D+01 -0.522917D+01 -0.334806D+00
     15   0.509096D+01 -0.129974D+01  0.376740D+01 -0.472279D+00  0.704576D+00
     16  -0.388943D+01  0.191900D-01 -0.274380D+01 -0.142461D+00 -0.460476D+00
                 6 
      1  -0.137400D+04
      2   0.826742D-01
      3   0.242472D+00
      4  -0.105607D+00
      5  -0.164519D-01
      6  -0.427491D-01
      7   0.186046D-01
      8  -0.434647D+00
      9  -0.418730D+00
     10  -0.142461D+01
     11  -0.676390D+00
     12   0.152730D+01
     13   0.499310D-01
     14  -0.841459D+00
     15   0.357168D+00
     16  -0.182276D+00
 Unable to Open any file for archive entry.
 1\1\VILNIUS-FIZIKA133\FOpt\RM062X TD-FC\CC-pVDZ\C27H19B1F2N2\TOLISTE\3
 1-Jan-2022\0\\#p m062x cc-pvdz scrf=(cpcm,solvent=Methanol) td=(nstate
 =6,root=1) opt=tight nosymm density=all int=ultrafine fchk\\BDP-PP-phe
 nyl, optimized S1 in toluene\\0,1\N,12.6463814161,-9.4587312851,-0.967
 7372362\C,13.653342383,-9.8767986769,-1.7310522514\C,14.3805999612,-8.
 7586364076,-2.2355127122\C,13.7385516122,-7.6132452728,-1.7232483175\C
 ,12.6717408855,-8.04712514,-0.9175427524\C,10.5233553371,-5.1532928267
 ,-0.1668114365\C,10.5081820374,-3.761998418,-0.1134746293\C,11.6985404
 621,-3.0512414239,0.0495714971\C,12.9046387892,-3.7441188299,0.1631361
 499\C,12.9238351777,-5.1358454152,0.1090611084\C,11.7328892676,-5.8628
 863529,-0.0615543869\C,11.7364130212,-7.3346872514,-0.1180436954\C,10.
 8405527432,-8.081727705,0.6959991605\C,9.9774993073,-7.6778918175,1.72
 86623344\C,9.4146957325,-8.8401581415,2.2927704253\C,9.9631025948,-9.9
 37292151,1.5639842251\N,10.7919625152,-9.4898882516,0.6238829821\F,12.
 0102350434,-11.5199495172,0.1302449905\B,11.5037329732,-10.3533594311,
 -0.4382916794\F,10.6219643624,-10.6758733434,-1.4776740144\H,13.798959
 3034,-10.9386895419,-1.9159471946\H,14.0119140698,-6.577868934,-1.8942
 690589\H,9.5919590359,-5.7031110257,-0.3122208388\H,9.5609950797,-3.22
 95664171,-0.207212457\H,11.685826084,-1.9616943905,0.0907715995\H,13.8
 38132628,-3.1982609573,0.3046822244\H,13.8673666791,-5.6695710356,0.23
 02279403\H,9.8332665152,-6.6519653551,2.051342681\H,9.7805790309,-11.0
 036638652,1.6751878159\C,15.5376045701,-8.8271838795,-3.1143813573\C,1
 6.0919834293,-7.6520902454,-3.6602973016\C,16.1330871941,-10.062969635
 6,-3.4399607561\C,17.1979267583,-7.7123983335,-4.4996449717\C,17.23904
 71287,-10.1185485933,-4.2794353748\C,17.7773196981,-8.9447548349,-4.81
 37315659\H,15.6455065915,-6.6848671606,-3.4283362017\H,15.7321111388,-
 10.9882784764,-3.0254647615\H,17.6119020652,-6.7927683623,-4.914074158
 1\H,17.6870868133,-11.0834806205,-4.5178573449\H,18.6452838456,-8.9902
 585384,-5.472095281\C,8.4699795789,-8.9433019292,3.3938827944\C,7.8980
 967698,-7.7847563055,3.956782421\C,8.1053398303,-10.1971487022,3.92555
 14372\C,6.9969791902,-7.8784218759,5.0105936255\C,7.203800083,-10.2860
 776353,4.9791381714\C,6.6450288964,-9.1282901658,5.527302351\H,8.15813
 36293,-6.8043926574,3.5566680622\H,8.5382801259,-11.1101288365,3.51580
 8057\H,6.562953904,-6.971361861,5.4321677526\H,6.9354542738,-11.264526
 6319,5.3782492476\H,5.9375594371,-9.1999615378,6.3538606812\\Version=E
 S64L-G16RevC.01\HF=-1374.1717295\RMSD=5.873e-09\RMSF=1.155e-06\Dipole=
 0.5485084,1.6365187,0.6821344\Quadrupole=40.9617136,-46.4417643,5.4800
 507,25.7743283,-12.6610884,-13.5830472\PG=C01 [X(C27H19B1F2N2)]\\@
 The archive entry for this job was punched.


 The best way to pay for a lovely moment is to enjoy it.
 -- Richard Bach
 Job cpu time:       0 days  0 hours 11 minutes  1.3 seconds.
 Elapsed time:       0 days  4 hours 46 minutes 13.8 seconds.
 File lengths (MBytes):  RWF=   1885 Int=      0 D2E=      0 Chk=     92 Scr=      1
 Normal termination of Gaussian 16 at Mon Jan 31 19:32:22 2022.
