 Entering Gaussian System, Link 0=/lustre1/prg/gaussian/bin/G16_C01_Linda_AVX2/g16/g16
 Initial command:
 /lustre1/prg/gaussian/bin/G16_C01_Linda_AVX2/g16/l1.exe "/lustre1/prg/webmo/data/webmo20/toliste/4418/scratch/Gau-1703890.inp" -scrdir="/lustre1/prg/webmo/data/webmo20/toliste/4418/scratch/"
 Default is to use a total of  32 processors:
                               32 via shared-memory
                                1 via Linda
 Entering Link 1 = /lustre1/prg/gaussian/bin/G16_C01_Linda_AVX2/g16/l1.exe PID=   1703891.
  
 Copyright (c) 1988-2019, Gaussian, Inc.  All Rights Reserved.
  
 This is part of the Gaussian(R) 16 program.  It is based on
 the Gaussian(R) 09 system (copyright 2009, Gaussian, Inc.),
 the Gaussian(R) 03 system (copyright 2003, Gaussian, Inc.),
 the Gaussian(R) 98 system (copyright 1998, Gaussian, Inc.),
 the Gaussian(R) 94 system (copyright 1995, Gaussian, Inc.),
 the Gaussian 92(TM) system (copyright 1992, Gaussian, Inc.),
 the Gaussian 90(TM) system (copyright 1990, Gaussian, Inc.),
 the Gaussian 88(TM) system (copyright 1988, Gaussian, Inc.),
 the Gaussian 86(TM) system (copyright 1986, Carnegie Mellon
 University), and the Gaussian 82(TM) system (copyright 1983,
 Carnegie Mellon University). Gaussian is a federally registered
 trademark of Gaussian, Inc.
  
 This software contains proprietary and confidential information,
 including trade secrets, belonging to Gaussian, Inc.
  
 This software is provided under written license and may be
 used, copied, transmitted, or stored only in accord with that
 written license.
  
 The following legend is applicable only to US Government
 contracts under FAR:
  
                    RESTRICTED RIGHTS LEGEND
  
 Use, reproduction and disclosure by the US Government is
 subject to restrictions as set forth in subparagraphs (a)
 and (c) of the Commercial Computer Software - Restricted
 Rights clause in FAR 52.227-19.
  
 Gaussian, Inc.
 340 Quinnipiac St., Bldg. 40, Wallingford CT 06492
  
  
 ---------------------------------------------------------------
 Warning -- This program may not be used in any manner that
 competes with the business of Gaussian, Inc. or will provide
 assistance to any competitor of Gaussian, Inc.  The licensee
 of this program is prohibited from giving any competitor of
 Gaussian, Inc. access to this program.  By using this program,
 the user acknowledges that Gaussian, Inc. is engaged in the
 business of creating and licensing software in the field of
 computational chemistry and represents and warrants to the
 licensee that it is not a competitor of Gaussian, Inc. and that
 it will not use this program in any manner prohibited above.
 ---------------------------------------------------------------
  

 Cite this work as:
 Gaussian 16, Revision C.01,
 M. J. Frisch, G. W. Trucks, H. B. Schlegel, G. E. Scuseria, 
 M. A. Robb, J. R. Cheeseman, G. Scalmani, V. Barone, 
 G. A. Petersson, H. Nakatsuji, X. Li, M. Caricato, A. V. Marenich, 
 J. Bloino, B. G. Janesko, R. Gomperts, B. Mennucci, H. P. Hratchian, 
 J. V. Ortiz, A. F. Izmaylov, J. L. Sonnenberg, D. Williams-Young, 
 F. Ding, F. Lipparini, F. Egidi, J. Goings, B. Peng, A. Petrone, 
 T. Henderson, D. Ranasinghe, V. G. Zakrzewski, J. Gao, N. Rega, 
 G. Zheng, W. Liang, M. Hada, M. Ehara, K. Toyota, R. Fukuda, 
 J. Hasegawa, M. Ishida, T. Nakajima, Y. Honda, O. Kitao, H. Nakai, 
 T. Vreven, K. Throssell, J. A. Montgomery, Jr., J. E. Peralta, 
 F. Ogliaro, M. J. Bearpark, J. J. Heyd, E. N. Brothers, K. N. Kudin, 
 V. N. Staroverov, T. A. Keith, R. Kobayashi, J. Normand, 
 K. Raghavachari, A. P. Rendell, J. C. Burant, S. S. Iyengar, 
 J. Tomasi, M. Cossi, J. M. Millam, M. Klene, C. Adamo, R. Cammi, 
 J. W. Ochterski, R. L. Martin, K. Morokuma, O. Farkas, 
 J. B. Foresman, and D. J. Fox, Gaussian, Inc., Wallingford CT, 2019.
 
 ******************************************
 Gaussian 16:  ES64L-G16RevC.01  3-Jul-2019
                 1-Feb-2022 
 ******************************************
 %LindaWorkers=fizika341,fizika342
 %chk=bodipy.chk
 SetLPE:  input flags=" -opt "Tsnet.Node.lindarsharg: ssh" "
 SetLPE:    new flags=" -opt "Tsnet.Node.lindarsharg: ssh" -opt 'Tsnet.Node.lindarsharg: ssh'  -nodelist 'fizika341.fizika.bullx fizika342.fizika.bullx' -env GAUSS_MDEF=49660559360 -env GAUSS_EXEDIR="/lustre1/prg/gaussian/bin/G16_C01_Linda_AVX2/g16/bsd:/lustre1/prg/gaussian/bin/G16_C01_Linda_AVX2/g16/private:/lustre1/prg/gaussian/bin/G16_C01_Linda_AVX2/g16""
 Will use up to    2 processors via Linda.
 ----------------------------------------------------------------------
 #p m062x cc-pvdz scrf=(cpcm,solvent=TetraHydroFuran) td=(nstate=6,root
 =1) opt=tight nosymm density=all int=ultrafine fchk
 ----------------------------------------------------------------------
 1/7=10,18=20,19=15,26=6,38=1/1,3;
 2/9=110,12=2,15=1,17=6,18=5,40=1/2;
 3/5=16,11=9,25=1,30=1,70=2101,71=1,72=20,74=-55,75=-5/1,2,3,8;
 4//1;
 5/5=2,38=5,53=20/2;
 8/6=1,10=1,107=1,108=6/1;
 9/8=1,15=2,30=10,41=6,42=1,70=2/14;
 10/5=4,28=1,31=1/2;
 6/7=2,8=2,9=2,10=2,22=-2/1;
 7/12=6,13=5,14=1,30=1/1,2,3,16;
 1/7=10,18=20,19=15,26=6/3(2);
 2/9=110,15=1/2;
 99//99;
 2/9=110,15=1/2;
 3/5=16,11=9,25=1,30=1,70=2105,71=1,72=20,74=-55,75=-5/1,2,3,8;
 4/5=5,16=3,69=1/1;
 5/5=2,38=5,53=20/2;
 8/6=1,10=1,107=1,108=6/1;
 9/8=1,15=2,30=10,41=6,42=1,49=4,70=2/14;
 10/5=4,28=1,31=1/2;
 7/12=6,13=5,14=1,30=1/1,2,3,16;
 1/7=10,18=20,19=15,26=6/3(-8);
 2/9=110,15=1/2;
 6/7=2,8=2,9=2,10=2,22=-2/1;
 99/9=10/99;
 Leave Link    1 at Tue Feb  1 12:14:56 2022, MaxMem=           0 cpu:               2.5 elap:               0.1
 (Enter /lustre1/prg/gaussian/bin/G16_C01_Linda_AVX2/g16/l101.exe)
 --------------------------------------
 BDP-PP-phenyl, optimized S1 in toluene
 --------------------------------------
 Symbolic Z-matrix:
 Charge =  0 Multiplicity = 1
 N                     12.62367  -9.4506   -0.98875 
 C                     13.63767  -9.87487  -1.73835 
 C                     14.37617  -8.7627   -2.23263 
 C                     13.73264  -7.61155  -1.72688 
 C                     12.65731  -8.0399   -0.93462 
 C                     10.50976  -5.14439  -0.15971 
 C                     10.49579  -3.75399  -0.09963 
 C                     11.68762  -3.04389   0.05368 
 C                     12.89423  -3.73787   0.15058 
 C                     12.91292  -5.12869   0.0884 
 C                     11.72023  -5.856    -0.07284 
 C                     11.72103  -7.32481  -0.13704 
 C                     10.82157  -8.07464   0.67324 
 C                     9.97659  -7.67593   1.71821 
 C                     9.41416  -8.84334   2.28069 
 C                     9.94715  -9.93433   1.53585 
 N                     10.76389  -9.48104   0.58897 
 F                     11.94401  -11.52245   0.05941 
 B                     11.45987  -10.3404  -0.49036 
 F                     10.58086  -10.61516  -1.53887 
 H                     13.77189  -10.93767  -1.92473 
 H                     14.01281  -6.57782  -1.89604 
 H                     9.57792  -5.6946   -0.30006 
 H                     9.54788  -3.2208   -0.18178 
 H                     11.67562  -1.95458   0.10049 
 H                     13.82909  -3.19282   0.28674 
 H                     13.85632  -5.66434   0.20065 
 H                     9.84781  -6.65296   2.05644 
 H                     9.76341  -11.00134   1.63475 
 C                     15.54078  -8.83366  -3.09953 
 C                     16.09101  -7.6634   -3.6595 
 C                     16.15015  -10.06883  -3.40061 
 C                     17.20509  -7.7274   -4.48704 
 C                     17.26394  -10.12857  -4.22829 
 C                     17.7977  -8.95913  -4.77608 
 H                     15.63186  -6.69733  -3.44861 
 H                     15.75246  -10.9895  -2.97287 
 H                     17.6149  -6.81107  -4.91293 
 H                     17.72235  -11.09334  -4.44714 
 H                     18.67216  -9.00774  -5.42561 
 C                     8.48348  -8.94761   3.39182 
 C                     7.91628  -7.79086   3.96317 
 C                     8.12583  -10.20192   3.92744 
 C                     7.02798  -7.88625   5.027 
 C                     7.23719  -10.29295   4.99082 
 C                     6.68349  -9.13653   5.54668 
 H                     8.17032  -6.81053   3.55937 
 H                     8.55655  -11.11305   3.51144 
 H                     6.59767  -6.9801    5.45443 
 H                     6.97476  -11.27204   5.39242 
 H                     5.98586  -9.20981   6.38145 
 
 ITRead=  0  0  0  0  0  0  0  0  0  0  0  0  0  0  0  0  0  0  0  0
 ITRead=  0  0  0  0  0  0  0  0  0  0  0  0  0  0  0  0  0  0  0  0
 ITRead=  0  0  0  0  0  0  0  0  0  0  0
 MicOpt= -1 -1 -1 -1 -1 -1 -1 -1 -1 -1 -1 -1 -1 -1 -1 -1 -1 -1 -1 -1
 MicOpt= -1 -1 -1 -1 -1 -1 -1 -1 -1 -1 -1 -1 -1 -1 -1 -1 -1 -1 -1 -1
 MicOpt= -1 -1 -1 -1 -1 -1 -1 -1 -1 -1 -1
 NAtoms=     51 NQM=       51 NQMF=       0 NMMI=      0 NMMIF=      0
                NMic=       0 NMicF=      0.
                    Isotopes and Nuclear Properties:
 (Nuclear quadrupole moments (NQMom) in fm**2, nuclear magnetic moments (NMagM)
  in nuclear magnetons)

  Atom         1           2           3           4           5           6           7           8           9          10
 IAtWgt=          14          12          12          12          12          12          12          12          12          12
 AtmWgt=  14.0030740  12.0000000  12.0000000  12.0000000  12.0000000  12.0000000  12.0000000  12.0000000  12.0000000  12.0000000
 NucSpn=           2           0           0           0           0           0           0           0           0           0
 AtZEff=  -0.0000000  -0.0000000  -0.0000000  -0.0000000  -0.0000000  -0.0000000  -0.0000000  -0.0000000  -0.0000000  -0.0000000
 NQMom=    2.0440000   0.0000000   0.0000000   0.0000000   0.0000000   0.0000000   0.0000000   0.0000000   0.0000000   0.0000000
 NMagM=    0.4037610   0.0000000   0.0000000   0.0000000   0.0000000   0.0000000   0.0000000   0.0000000   0.0000000   0.0000000
 AtZNuc=   7.0000000   6.0000000   6.0000000   6.0000000   6.0000000   6.0000000   6.0000000   6.0000000   6.0000000   6.0000000

  Atom        11          12          13          14          15          16          17          18          19          20
 IAtWgt=          12          12          12          12          12          12          14          19          11          19
 AtmWgt=  12.0000000  12.0000000  12.0000000  12.0000000  12.0000000  12.0000000  14.0030740  18.9984032  11.0093053  18.9984032
 NucSpn=           0           0           0           0           0           0           2           1           3           1
 AtZEff=  -0.0000000  -0.0000000  -0.0000000  -0.0000000  -0.0000000  -0.0000000  -0.0000000  -0.0000000  -0.0000000  -0.0000000
 NQMom=    0.0000000   0.0000000   0.0000000   0.0000000   0.0000000   0.0000000   2.0440000   0.0000000   4.0590000   0.0000000
 NMagM=    0.0000000   0.0000000   0.0000000   0.0000000   0.0000000   0.0000000   0.4037610   2.6288670   2.6886370   2.6288670
 AtZNuc=   6.0000000   6.0000000   6.0000000   6.0000000   6.0000000   6.0000000   7.0000000   9.0000000   5.0000000   9.0000000

  Atom        21          22          23          24          25          26          27          28          29          30
 IAtWgt=           1           1           1           1           1           1           1           1           1          12
 AtmWgt=   1.0078250   1.0078250   1.0078250   1.0078250   1.0078250   1.0078250   1.0078250   1.0078250   1.0078250  12.0000000
 NucSpn=           1           1           1           1           1           1           1           1           1           0
 AtZEff=  -0.0000000  -0.0000000  -0.0000000  -0.0000000  -0.0000000  -0.0000000  -0.0000000  -0.0000000  -0.0000000  -0.0000000
 NQMom=    0.0000000   0.0000000   0.0000000   0.0000000   0.0000000   0.0000000   0.0000000   0.0000000   0.0000000   0.0000000
 NMagM=    2.7928460   2.7928460   2.7928460   2.7928460   2.7928460   2.7928460   2.7928460   2.7928460   2.7928460   0.0000000
 AtZNuc=   1.0000000   1.0000000   1.0000000   1.0000000   1.0000000   1.0000000   1.0000000   1.0000000   1.0000000   6.0000000

  Atom        31          32          33          34          35          36          37          38          39          40
 IAtWgt=          12          12          12          12          12           1           1           1           1           1
 AtmWgt=  12.0000000  12.0000000  12.0000000  12.0000000  12.0000000   1.0078250   1.0078250   1.0078250   1.0078250   1.0078250
 NucSpn=           0           0           0           0           0           1           1           1           1           1
 AtZEff=  -0.0000000  -0.0000000  -0.0000000  -0.0000000  -0.0000000  -0.0000000  -0.0000000  -0.0000000  -0.0000000  -0.0000000
 NQMom=    0.0000000   0.0000000   0.0000000   0.0000000   0.0000000   0.0000000   0.0000000   0.0000000   0.0000000   0.0000000
 NMagM=    0.0000000   0.0000000   0.0000000   0.0000000   0.0000000   2.7928460   2.7928460   2.7928460   2.7928460   2.7928460
 AtZNuc=   6.0000000   6.0000000   6.0000000   6.0000000   6.0000000   1.0000000   1.0000000   1.0000000   1.0000000   1.0000000

  Atom        41          42          43          44          45          46          47          48          49          50
 IAtWgt=          12          12          12          12          12          12           1           1           1           1
 AtmWgt=  12.0000000  12.0000000  12.0000000  12.0000000  12.0000000  12.0000000   1.0078250   1.0078250   1.0078250   1.0078250
 NucSpn=           0           0           0           0           0           0           1           1           1           1
 AtZEff=  -0.0000000  -0.0000000  -0.0000000  -0.0000000  -0.0000000  -0.0000000  -0.0000000  -0.0000000  -0.0000000  -0.0000000
 NQMom=    0.0000000   0.0000000   0.0000000   0.0000000   0.0000000   0.0000000   0.0000000   0.0000000   0.0000000   0.0000000
 NMagM=    0.0000000   0.0000000   0.0000000   0.0000000   0.0000000   0.0000000   2.7928460   2.7928460   2.7928460   2.7928460
 AtZNuc=   6.0000000   6.0000000   6.0000000   6.0000000   6.0000000   6.0000000   1.0000000   1.0000000   1.0000000   1.0000000

  Atom        51
 IAtWgt=           1
 AtmWgt=   1.0078250
 NucSpn=           1
 AtZEff=  -0.0000000
 NQMom=    0.0000000
 NMagM=    2.7928460
 AtZNuc=   1.0000000
 Leave Link  101 at Tue Feb  1 12:14:56 2022, MaxMem= 49660559360 cpu:              26.8 elap:               0.8
 (Enter /lustre1/prg/gaussian/bin/G16_C01_Linda_AVX2/g16/l103.exe)

 GradGradGradGradGradGradGradGradGradGradGradGradGradGradGradGradGradGrad
 Berny optimization.
 Initialization pass.
                           ----------------------------
                           !    Initial Parameters    !
                           ! (Angstroms and Degrees)  !
 --------------------------                            --------------------------
 ! Name  Definition              Value          Derivative Info.                !
 --------------------------------------------------------------------------------
 ! R1    R(1,2)                  1.3305         estimate D2E/DX2                !
 ! R2    R(1,5)                  1.4121         estimate D2E/DX2                !
 ! R3    R(1,19)                 1.5474         estimate D2E/DX2                !
 ! R4    R(2,3)                  1.4236         estimate D2E/DX2                !
 ! R5    R(2,21)                 1.0873         estimate D2E/DX2                !
 ! R6    R(3,4)                  1.4125         estimate D2E/DX2                !
 ! R7    R(3,30)                 1.4536         estimate D2E/DX2                !
 ! R8    R(4,5)                  1.4027         estimate D2E/DX2                !
 ! R9    R(4,22)                 1.0843         estimate D2E/DX2                !
 ! R10   R(5,12)                 1.4227         estimate D2E/DX2                !
 ! R11   R(6,7)                  1.3918         estimate D2E/DX2                !
 ! R12   R(6,11)                 1.4068         estimate D2E/DX2                !
 ! R13   R(6,23)                 1.0912         estimate D2E/DX2                !
 ! R14   R(7,8)                  1.3958         estimate D2E/DX2                !
 ! R15   R(7,24)                 1.0907         estimate D2E/DX2                !
 ! R16   R(8,9)                  1.3953         estimate D2E/DX2                !
 ! R17   R(8,25)                 1.0904         estimate D2E/DX2                !
 ! R18   R(9,10)                 1.3923         estimate D2E/DX2                !
 ! R19   R(9,26)                 1.0907         estimate D2E/DX2                !
 ! R20   R(10,11)                1.4062         estimate D2E/DX2                !
 ! R21   R(10,27)                1.0907         estimate D2E/DX2                !
 ! R22   R(11,12)                1.4702         estimate D2E/DX2                !
 ! R23   R(12,13)                1.424          estimate D2E/DX2                !
 ! R24   R(13,14)                1.4018         estimate D2E/DX2                !
 ! R25   R(13,17)                1.4101         estimate D2E/DX2                !
 ! R26   R(14,15)                1.4126         estimate D2E/DX2                !
 ! R27   R(14,28)                1.0851         estimate D2E/DX2                !
 ! R28   R(15,16)                1.4245         estimate D2E/DX2                !
 ! R29   R(15,41)                1.4532         estimate D2E/DX2                !
 ! R30   R(16,17)                1.3301         estimate D2E/DX2                !
 ! R31   R(16,29)                1.0872         estimate D2E/DX2                !
 ! R32   R(17,19)                1.5453         estimate D2E/DX2                !
 ! R33   R(18,19)                1.3906         estimate D2E/DX2                !
 ! R34   R(19,20)                1.3955         estimate D2E/DX2                !
 ! R35   R(30,31)                1.4092         estimate D2E/DX2                !
 ! R36   R(30,32)                1.4098         estimate D2E/DX2                !
 ! R37   R(31,33)                1.3893         estimate D2E/DX2                !
 ! R38   R(31,36)                1.0902         estimate D2E/DX2                !
 ! R39   R(32,34)                1.3889         estimate D2E/DX2                !
 ! R40   R(32,37)                1.0903         estimate D2E/DX2                !
 ! R41   R(33,35)                1.3971         estimate D2E/DX2                !
 ! R42   R(33,38)                1.0904         estimate D2E/DX2                !
 ! R43   R(34,35)                1.3973         estimate D2E/DX2                !
 ! R44   R(34,39)                1.0903         estimate D2E/DX2                !
 ! R45   R(35,40)                1.0904         estimate D2E/DX2                !
 ! R46   R(41,42)                1.4093         estimate D2E/DX2                !
 ! R47   R(41,43)                1.41           estimate D2E/DX2                !
 ! R48   R(42,44)                1.3892         estimate D2E/DX2                !
 ! R49   R(42,47)                1.0902         estimate D2E/DX2                !
 ! R50   R(43,45)                1.3888         estimate D2E/DX2                !
 ! R51   R(43,48)                1.0903         estimate D2E/DX2                !
 ! R52   R(44,46)                1.3971         estimate D2E/DX2                !
 ! R53   R(44,49)                1.0904         estimate D2E/DX2                !
 ! R54   R(45,46)                1.3975         estimate D2E/DX2                !
 ! R55   R(45,50)                1.0903         estimate D2E/DX2                !
 ! R56   R(46,51)                1.0904         estimate D2E/DX2                !
 ! A1    A(2,1,5)              108.7844         estimate D2E/DX2                !
 ! A2    A(2,1,19)             124.8401         estimate D2E/DX2                !
 ! A3    A(5,1,19)             125.4509         estimate D2E/DX2                !
 ! A4    A(1,2,3)              109.9901         estimate D2E/DX2                !
 ! A5    A(1,2,21)             120.1558         estimate D2E/DX2                !
 ! A6    A(3,2,21)             129.7966         estimate D2E/DX2                !
 ! A7    A(2,3,4)              106.0238         estimate D2E/DX2                !
 ! A8    A(2,3,30)             125.7723         estimate D2E/DX2                !
 ! A9    A(4,3,30)             128.1969         estimate D2E/DX2                !
 ! A10   A(3,4,5)              107.6164         estimate D2E/DX2                !
 ! A11   A(3,4,22)             127.1137         estimate D2E/DX2                !
 ! A12   A(5,4,22)             125.2637         estimate D2E/DX2                !
 ! A13   A(1,5,4)              107.5586         estimate D2E/DX2                !
 ! A14   A(1,5,12)             120.5253         estimate D2E/DX2                !
 ! A15   A(4,5,12)             131.8875         estimate D2E/DX2                !
 ! A16   A(7,6,11)             120.7505         estimate D2E/DX2                !
 ! A17   A(7,6,23)             120.0466         estimate D2E/DX2                !
 ! A18   A(11,6,23)            119.186          estimate D2E/DX2                !
 ! A19   A(6,7,8)              120.2926         estimate D2E/DX2                !
 ! A20   A(6,7,24)             119.5939         estimate D2E/DX2                !
 ! A21   A(8,7,24)             120.1114         estimate D2E/DX2                !
 ! A22   A(7,8,9)              119.5378         estimate D2E/DX2                !
 ! A23   A(7,8,25)             120.2359         estimate D2E/DX2                !
 ! A24   A(9,8,25)             120.226          estimate D2E/DX2                !
 ! A25   A(8,9,10)             120.353          estimate D2E/DX2                !
 ! A26   A(8,9,26)             120.0879         estimate D2E/DX2                !
 ! A27   A(10,9,26)            119.5557         estimate D2E/DX2                !
 ! A28   A(9,10,11)            120.689          estimate D2E/DX2                !
 ! A29   A(9,10,27)            119.8413         estimate D2E/DX2                !
 ! A30   A(11,10,27)           119.4347         estimate D2E/DX2                !
 ! A31   A(6,11,10)            118.3745         estimate D2E/DX2                !
 ! A32   A(6,11,12)            120.2063         estimate D2E/DX2                !
 ! A33   A(10,11,12)           121.4164         estimate D2E/DX2                !
 ! A34   A(5,12,11)            121.8017         estimate D2E/DX2                !
 ! A35   A(5,12,13)            118.0346         estimate D2E/DX2                !
 ! A36   A(11,12,13)           120.0574         estimate D2E/DX2                !
 ! A37   A(12,13,14)           130.9316         estimate D2E/DX2                !
 ! A38   A(12,13,17)           121.132          estimate D2E/DX2                !
 ! A39   A(14,13,17)           107.6729         estimate D2E/DX2                !
 ! A40   A(13,14,15)           107.5641         estimate D2E/DX2                !
 ! A41   A(13,14,28)           124.8938         estimate D2E/DX2                !
 ! A42   A(15,14,28)           127.4242         estimate D2E/DX2                !
 ! A43   A(14,15,16)           106.0071         estimate D2E/DX2                !
 ! A44   A(14,15,41)           128.2249         estimate D2E/DX2                !
 ! A45   A(16,15,41)           125.7679         estimate D2E/DX2                !
 ! A46   A(15,16,17)           109.937          estimate D2E/DX2                !
 ! A47   A(15,16,29)           129.8552         estimate D2E/DX2                !
 ! A48   A(17,16,29)           120.1986         estimate D2E/DX2                !
 ! A49   A(13,17,16)           108.8128         estimate D2E/DX2                !
 ! A50   A(13,17,19)           125.3089         estimate D2E/DX2                !
 ! A51   A(16,17,19)           125.7522         estimate D2E/DX2                !
 ! A52   A(1,19,17)            104.1176         estimate D2E/DX2                !
 ! A53   A(1,19,18)            110.748          estimate D2E/DX2                !
 ! A54   A(1,19,20)            110.1778         estimate D2E/DX2                !
 ! A55   A(17,19,18)           110.6943         estimate D2E/DX2                !
 ! A56   A(17,19,20)           110.5236         estimate D2E/DX2                !
 ! A57   A(18,19,20)           110.424          estimate D2E/DX2                !
 ! A58   A(3,30,31)            120.6159         estimate D2E/DX2                !
 ! A59   A(3,30,32)            121.0935         estimate D2E/DX2                !
 ! A60   A(31,30,32)           118.2905         estimate D2E/DX2                !
 ! A61   A(30,31,33)           120.7671         estimate D2E/DX2                !
 ! A62   A(30,31,36)           119.6417         estimate D2E/DX2                !
 ! A63   A(33,31,36)           119.5887         estimate D2E/DX2                !
 ! A64   A(30,32,34)           120.7671         estimate D2E/DX2                !
 ! A65   A(30,32,37)           119.8921         estimate D2E/DX2                !
 ! A66   A(34,32,37)           119.3377         estimate D2E/DX2                !
 ! A67   A(31,33,35)           120.2646         estimate D2E/DX2                !
 ! A68   A(31,33,38)           119.6911         estimate D2E/DX2                !
 ! A69   A(35,33,38)           120.0441         estimate D2E/DX2                !
 ! A70   A(32,34,35)           120.2594         estimate D2E/DX2                !
 ! A71   A(32,34,39)           119.6574         estimate D2E/DX2                !
 ! A72   A(35,34,39)           120.083          estimate D2E/DX2                !
 ! A73   A(33,35,34)           119.6513         estimate D2E/DX2                !
 ! A74   A(33,35,40)           120.1802         estimate D2E/DX2                !
 ! A75   A(34,35,40)           120.1685         estimate D2E/DX2                !
 ! A76   A(15,41,42)           120.5873         estimate D2E/DX2                !
 ! A77   A(15,41,43)           121.114          estimate D2E/DX2                !
 ! A78   A(42,41,43)           118.2985         estimate D2E/DX2                !
 ! A79   A(41,42,44)           120.7595         estimate D2E/DX2                !
 ! A80   A(41,42,47)           119.6104         estimate D2E/DX2                !
 ! A81   A(44,42,47)           119.6275         estimate D2E/DX2                !
 ! A82   A(41,43,45)           120.7621         estimate D2E/DX2                !
 ! A83   A(41,43,48)           119.8854         estimate D2E/DX2                !
 ! A84   A(45,43,48)           119.3499         estimate D2E/DX2                !
 ! A85   A(42,44,46)           120.2618         estimate D2E/DX2                !
 ! A86   A(42,44,49)           119.6999         estimate D2E/DX2                !
 ! A87   A(46,44,49)           120.0381         estimate D2E/DX2                !
 ! A88   A(43,45,46)           120.255          estimate D2E/DX2                !
 ! A89   A(43,45,50)           119.6638         estimate D2E/DX2                !
 ! A90   A(46,45,50)           120.081          estimate D2E/DX2                !
 ! A91   A(44,46,45)           119.663          estimate D2E/DX2                !
 ! A92   A(44,46,51)           120.1768         estimate D2E/DX2                !
 ! A93   A(45,46,51)           120.1602         estimate D2E/DX2                !
 ! D1    D(5,1,2,3)             -0.9446         estimate D2E/DX2                !
 ! D2    D(5,1,2,21)          -178.4487         estimate D2E/DX2                !
 ! D3    D(19,1,2,3)           168.5315         estimate D2E/DX2                !
 ! D4    D(19,1,2,21)           -8.9726         estimate D2E/DX2                !
 ! D5    D(2,1,5,4)              1.6022         estimate D2E/DX2                !
 ! D6    D(2,1,5,12)          -176.6754         estimate D2E/DX2                !
 ! D7    D(19,1,5,4)          -167.7937         estimate D2E/DX2                !
 ! D8    D(19,1,5,12)           13.9287         estimate D2E/DX2                !
 ! D9    D(2,1,19,17)          166.759          estimate D2E/DX2                !
 ! D10   D(2,1,19,18)           47.7508         estimate D2E/DX2                !
 ! D11   D(2,1,19,20)          -74.7138         estimate D2E/DX2                !
 ! D12   D(5,1,19,17)          -25.4964         estimate D2E/DX2                !
 ! D13   D(5,1,19,18)         -144.5047         estimate D2E/DX2                !
 ! D14   D(5,1,19,20)           93.0308         estimate D2E/DX2                !
 ! D15   D(1,2,3,4)             -0.0695         estimate D2E/DX2                !
 ! D16   D(1,2,3,30)          -179.1701         estimate D2E/DX2                !
 ! D17   D(21,2,3,4)           177.1215         estimate D2E/DX2                !
 ! D18   D(21,2,3,30)           -1.9791         estimate D2E/DX2                !
 ! D19   D(2,3,4,5)              1.0555         estimate D2E/DX2                !
 ! D20   D(2,3,4,22)          -179.8235         estimate D2E/DX2                !
 ! D21   D(30,3,4,5)          -179.873          estimate D2E/DX2                !
 ! D22   D(30,3,4,22)           -0.7521         estimate D2E/DX2                !
 ! D23   D(2,3,30,31)          172.0844         estimate D2E/DX2                !
 ! D24   D(2,3,30,32)           -8.0225         estimate D2E/DX2                !
 ! D25   D(4,3,30,31)           -6.8156         estimate D2E/DX2                !
 ! D26   D(4,3,30,32)          173.0775         estimate D2E/DX2                !
 ! D27   D(3,4,5,1)             -1.6216         estimate D2E/DX2                !
 ! D28   D(3,4,5,12)           176.3852         estimate D2E/DX2                !
 ! D29   D(22,4,5,1)           179.2369         estimate D2E/DX2                !
 ! D30   D(22,4,5,12)           -2.7562         estimate D2E/DX2                !
 ! D31   D(1,5,12,11)         -179.2479         estimate D2E/DX2                !
 ! D32   D(1,5,12,13)            4.4999         estimate D2E/DX2                !
 ! D33   D(4,5,12,11)            2.9582         estimate D2E/DX2                !
 ! D34   D(4,5,12,13)         -173.294          estimate D2E/DX2                !
 ! D35   D(11,6,7,8)            -0.2557         estimate D2E/DX2                !
 ! D36   D(11,6,7,24)          179.2159         estimate D2E/DX2                !
 ! D37   D(23,6,7,8)          -178.7517         estimate D2E/DX2                !
 ! D38   D(23,6,7,24)            0.72           estimate D2E/DX2                !
 ! D39   D(7,6,11,10)            0.5753         estimate D2E/DX2                !
 ! D40   D(7,6,11,12)          179.9715         estimate D2E/DX2                !
 ! D41   D(23,6,11,10)         179.0841         estimate D2E/DX2                !
 ! D42   D(23,6,11,12)          -1.5198         estimate D2E/DX2                !
 ! D43   D(6,7,8,9)             -0.1972         estimate D2E/DX2                !
 ! D44   D(6,7,8,25)           179.9907         estimate D2E/DX2                !
 ! D45   D(24,7,8,9)          -179.6662         estimate D2E/DX2                !
 ! D46   D(24,7,8,25)            0.5217         estimate D2E/DX2                !
 ! D47   D(7,8,9,10)             0.3188         estimate D2E/DX2                !
 ! D48   D(7,8,9,26)          -179.0098         estimate D2E/DX2                !
 ! D49   D(25,8,9,10)         -179.869          estimate D2E/DX2                !
 ! D50   D(25,8,9,26)            0.8023         estimate D2E/DX2                !
 ! D51   D(8,9,10,11)            0.0113         estimate D2E/DX2                !
 ! D52   D(8,9,10,27)         -177.8234         estimate D2E/DX2                !
 ! D53   D(26,9,10,11)         179.3435         estimate D2E/DX2                !
 ! D54   D(26,9,10,27)           1.5088         estimate D2E/DX2                !
 ! D55   D(9,10,11,6)           -0.4532         estimate D2E/DX2                !
 ! D56   D(9,10,11,12)        -179.8418         estimate D2E/DX2                !
 ! D57   D(27,10,11,6)         177.3902         estimate D2E/DX2                !
 ! D58   D(27,10,11,12)         -1.9984         estimate D2E/DX2                !
 ! D59   D(6,11,12,5)          135.1519         estimate D2E/DX2                !
 ! D60   D(6,11,12,13)         -48.6702         estimate D2E/DX2                !
 ! D61   D(10,11,12,5)         -45.4706         estimate D2E/DX2                !
 ! D62   D(10,11,12,13)        130.7072         estimate D2E/DX2                !
 ! D63   D(5,12,13,14)         166.9617         estimate D2E/DX2                !
 ! D64   D(5,12,13,17)          -6.3662         estimate D2E/DX2                !
 ! D65   D(11,12,13,14)         -9.3583         estimate D2E/DX2                !
 ! D66   D(11,12,13,17)        177.3138         estimate D2E/DX2                !
 ! D67   D(12,13,14,15)       -173.3937         estimate D2E/DX2                !
 ! D68   D(12,13,14,28)          2.9034         estimate D2E/DX2                !
 ! D69   D(17,13,14,15)          0.6148         estimate D2E/DX2                !
 ! D70   D(17,13,14,28)        176.912          estimate D2E/DX2                !
 ! D71   D(12,13,17,16)        173.898          estimate D2E/DX2                !
 ! D72   D(12,13,17,19)         -9.9968         estimate D2E/DX2                !
 ! D73   D(14,13,17,16)         -0.8161         estimate D2E/DX2                !
 ! D74   D(14,13,17,19)        175.2891         estimate D2E/DX2                !
 ! D75   D(13,14,15,16)         -0.2081         estimate D2E/DX2                !
 ! D76   D(13,14,15,41)        179.6571         estimate D2E/DX2                !
 ! D77   D(28,14,15,16)       -176.3836         estimate D2E/DX2                !
 ! D78   D(28,14,15,41)          3.4816         estimate D2E/DX2                !
 ! D79   D(14,15,16,17)         -0.3029         estimate D2E/DX2                !
 ! D80   D(14,15,16,29)       -179.1762         estimate D2E/DX2                !
 ! D81   D(41,15,16,17)        179.8277         estimate D2E/DX2                !
 ! D82   D(41,15,16,29)          0.9544         estimate D2E/DX2                !
 ! D83   D(14,15,41,42)          6.8262         estimate D2E/DX2                !
 ! D84   D(14,15,41,43)       -173.072          estimate D2E/DX2                !
 ! D85   D(16,15,41,42)       -173.3335         estimate D2E/DX2                !
 ! D86   D(16,15,41,43)          6.7683         estimate D2E/DX2                !
 ! D87   D(15,16,17,13)          0.6924         estimate D2E/DX2                !
 ! D88   D(15,16,17,19)       -175.3913         estimate D2E/DX2                !
 ! D89   D(29,16,17,13)        179.6916         estimate D2E/DX2                !
 ! D90   D(29,16,17,19)          3.608          estimate D2E/DX2                !
 ! D91   D(13,17,19,1)          23.4566         estimate D2E/DX2                !
 ! D92   D(13,17,19,18)        142.5014         estimate D2E/DX2                !
 ! D93   D(13,17,19,20)        -94.8334         estimate D2E/DX2                !
 ! D94   D(16,17,19,1)        -161.0874         estimate D2E/DX2                !
 ! D95   D(16,17,19,18)        -42.0426         estimate D2E/DX2                !
 ! D96   D(16,17,19,20)         80.6225         estimate D2E/DX2                !
 ! D97   D(3,30,31,33)         179.9151         estimate D2E/DX2                !
 ! D98   D(3,30,31,36)          -0.6586         estimate D2E/DX2                !
 ! D99   D(32,30,31,33)          0.0191         estimate D2E/DX2                !
 ! D100  D(32,30,31,36)        179.4454         estimate D2E/DX2                !
 ! D101  D(3,30,32,34)        -179.9075         estimate D2E/DX2                !
 ! D102  D(3,30,32,37)          -0.5506         estimate D2E/DX2                !
 ! D103  D(31,30,32,34)         -0.012          estimate D2E/DX2                !
 ! D104  D(31,30,32,37)        179.3449         estimate D2E/DX2                !
 ! D105  D(30,31,33,35)         -0.0161         estimate D2E/DX2                !
 ! D106  D(30,31,33,38)        179.846          estimate D2E/DX2                !
 ! D107  D(36,31,33,35)       -179.4427         estimate D2E/DX2                !
 ! D108  D(36,31,33,38)          0.4193         estimate D2E/DX2                !
 ! D109  D(30,32,34,35)          0.0018         estimate D2E/DX2                !
 ! D110  D(30,32,34,39)        179.848          estimate D2E/DX2                !
 ! D111  D(37,32,34,35)       -179.3586         estimate D2E/DX2                !
 ! D112  D(37,32,34,39)          0.4876         estimate D2E/DX2                !
 ! D113  D(31,33,35,34)          0.0055         estimate D2E/DX2                !
 ! D114  D(31,33,35,40)       -179.9884         estimate D2E/DX2                !
 ! D115  D(38,33,35,34)       -179.8561         estimate D2E/DX2                !
 ! D116  D(38,33,35,40)          0.1501         estimate D2E/DX2                !
 ! D117  D(32,34,35,33)          0.0016         estimate D2E/DX2                !
 ! D118  D(32,34,35,40)        179.9955         estimate D2E/DX2                !
 ! D119  D(39,34,35,33)       -179.8439         estimate D2E/DX2                !
 ! D120  D(39,34,35,40)          0.1499         estimate D2E/DX2                !
 ! D121  D(15,41,42,44)       -179.8873         estimate D2E/DX2                !
 ! D122  D(15,41,42,47)          0.6998         estimate D2E/DX2                !
 ! D123  D(43,41,42,44)          0.0137         estimate D2E/DX2                !
 ! D124  D(43,41,42,47)       -179.3992         estimate D2E/DX2                !
 ! D125  D(15,41,43,45)        179.901          estimate D2E/DX2                !
 ! D126  D(15,41,43,48)          0.4847         estimate D2E/DX2                !
 ! D127  D(42,41,43,45)          0.0005         estimate D2E/DX2                !
 ! D128  D(42,41,43,48)       -179.4158         estimate D2E/DX2                !
 ! D129  D(41,42,44,46)         -0.0123         estimate D2E/DX2                !
 ! D130  D(41,42,44,49)       -179.8643         estimate D2E/DX2                !
 ! D131  D(47,42,44,46)        179.4005         estimate D2E/DX2                !
 ! D132  D(47,42,44,49)         -0.4515         estimate D2E/DX2                !
 ! D133  D(41,43,45,46)         -0.0161         estimate D2E/DX2                !
 ! D134  D(41,43,45,50)       -179.8681         estimate D2E/DX2                !
 ! D135  D(48,43,45,46)        179.4033         estimate D2E/DX2                !
 ! D136  D(48,43,45,50)         -0.4486         estimate D2E/DX2                !
 ! D137  D(42,44,46,45)         -0.0034         estimate D2E/DX2                !
 ! D138  D(42,44,46,51)       -179.9778         estimate D2E/DX2                !
 ! D139  D(49,44,46,45)        179.8481         estimate D2E/DX2                !
 ! D140  D(49,44,46,51)         -0.1263         estimate D2E/DX2                !
 ! D141  D(43,45,46,44)          0.0176         estimate D2E/DX2                !
 ! D142  D(43,45,46,51)        179.9919         estimate D2E/DX2                !
 ! D143  D(50,45,46,44)        179.8689         estimate D2E/DX2                !
 ! D144  D(50,45,46,51)         -0.1568         estimate D2E/DX2                !
 --------------------------------------------------------------------------------
 Trust Radius=3.00D-01 FncErr=5.00D-06 GrdErr=5.00D-06 EigMax=2.50D+02 EigMin=1.00D-04
 Number of steps in this run=    303 maximum allowed number of steps=    306.
 GradGradGradGradGradGradGradGradGradGradGradGradGradGradGradGradGradGrad

 Leave Link  103 at Tue Feb  1 12:14:57 2022, MaxMem= 49660559360 cpu:               0.6 elap:               0.0
 (Enter /lustre1/prg/gaussian/bin/G16_C01_Linda_AVX2/g16/l202.exe)
 Symmetry turned off by external request.
 Stoichiometry    C27H19BF2N2
 Framework group  C1[X(C27H19BF2N2)]
 Deg. of freedom   147
 Full point group                 C1      NOp   1
                          Input orientation:                          
 ---------------------------------------------------------------------
 Center     Atomic      Atomic             Coordinates (Angstroms)
 Number     Number       Type             X           Y           Z
 ---------------------------------------------------------------------
      1          7           0       12.623665   -9.450596   -0.988748
      2          6           0       13.637669   -9.874871   -1.738346
      3          6           0       14.376168   -8.762702   -2.232625
      4          6           0       13.732638   -7.611554   -1.726879
      5          6           0       12.657312   -8.039898   -0.934616
      6          6           0       10.509762   -5.144387   -0.159713
      7          6           0       10.495791   -3.753987   -0.099626
      8          6           0       11.687620   -3.043892    0.053677
      9          6           0       12.894234   -3.737873    0.150576
     10          6           0       12.912919   -5.128692    0.088397
     11          6           0       11.720226   -5.855997   -0.072835
     12          6           0       11.721025   -7.324811   -0.137039
     13          6           0       10.821572   -8.074644    0.673244
     14          6           0        9.976586   -7.675934    1.718207
     15          6           0        9.414160   -8.843339    2.280691
     16          6           0        9.947154   -9.934331    1.535849
     17          7           0       10.763890   -9.481042    0.588972
     18          9           0       11.944013  -11.522445    0.059407
     19          5           0       11.459866  -10.340401   -0.490356
     20          9           0       10.580863  -10.615157   -1.538872
     21          1           0       13.771891  -10.937673   -1.924725
     22          1           0       14.012812   -6.577819   -1.896038
     23          1           0        9.577919   -5.694603   -0.300059
     24          1           0        9.547882   -3.220804   -0.181776
     25          1           0       11.675617   -1.954578    0.100490
     26          1           0       13.829087   -3.192818    0.286742
     27          1           0       13.856322   -5.664336    0.200652
     28          1           0        9.847805   -6.652964    2.056443
     29          1           0        9.763407  -11.001343    1.634748
     30          6           0       15.540785   -8.833660   -3.099530
     31          6           0       16.091008   -7.663397   -3.659495
     32          6           0       16.150150  -10.068828   -3.400611
     33          6           0       17.205089   -7.727397   -4.487043
     34          6           0       17.263943  -10.128573   -4.228293
     35          6           0       17.797695   -8.959125   -4.776082
     36          1           0       15.631857   -6.697333   -3.448613
     37          1           0       15.752457  -10.989504   -2.972869
     38          1           0       17.614895   -6.811069   -4.912932
     39          1           0       17.722348  -11.093338   -4.447137
     40          1           0       18.672159   -9.007739   -5.425605
     41          6           0        8.483480   -8.947606    3.391821
     42          6           0        7.916284   -7.790860    3.963171
     43          6           0        8.125834  -10.201918    3.927436
     44          6           0        7.027976   -7.886250    5.026999
     45          6           0        7.237192  -10.292953    4.990815
     46          6           0        6.683492   -9.136533    5.546677
     47          1           0        8.170317   -6.810533    3.559370
     48          1           0        8.556554  -11.113054    3.511443
     49          1           0        6.597672   -6.980098    5.454432
     50          1           0        6.974761  -11.272035    5.392417
     51          1           0        5.985856   -9.209812    6.381445
 ---------------------------------------------------------------------
 Rotational constants (GHZ):           0.2352065           0.0719671           0.0571013
 Leave Link  202 at Tue Feb  1 12:14:57 2022, MaxMem= 49660559360 cpu:               0.6 elap:               0.0
 (Enter /lustre1/prg/gaussian/bin/G16_C01_Linda_AVX2/g16/l301.exe)
 Standard basis: CC-pVDZ (5D, 7F)
 Ernie: Thresh=  0.10000D-02 Tol=  0.10000D-05 Strict=F.
 Ernie:  64 primitive shells out of 799 were deleted.
   543 basis functions,  1189 primitive gaussians,   575 cartesian basis functions
   109 alpha electrons      109 beta electrons
       nuclear repulsion energy      2847.5736827302 Hartrees.
 IExCor= 4336 DFT=T Ex+Corr=M062X ExCW=0 ScaHFX=  0.540000
 ScaDFX=  1.000000  1.000000  1.000000  1.000000 ScalE2=  1.000000  1.000000
 IRadAn=      5 IRanWt=     -1 IRanGd=            0 ICorTp=0 IEmpDi=  4
 NAtoms=   51 NActive=   51 NUniq=   51 SFac= 1.00D+00 NAtFMM=   60 NAOKFM=F Big=F
 Integral buffers will be    131072 words long.
 Regular integral format.
 Two-electron integral symmetry is turned off.
 ------------------------------------------------------------------------------
 Polarizable Continuum Model (PCM)
 =================================
 Model                : C-PCM.
 Atomic radii         : UFF (Universal Force Field).
 Polarization charges : Total charges.
 Charge compensation  : None.
 Solution method      : On-the-fly selection.
 Cavity type          : Scaled VdW (van der Waals Surface) (Alpha=1.100).
 Cavity algorithm     : GePol (No added spheres)
                        Default sphere list used, NSphG=   51.
                        Lebedev-Laikov grids with approx.  5.0 points / Ang**2.
                        Smoothing algorithm: York/Karplus (Gamma=1.0000).
                        Polarization charges: spherical gaussians, with
                                              point-specific exponents (IZeta= 3).
                        Self-potential: point-specific (ISelfS= 7).
                        Self-field    : sphere-specific E.n sum rule (ISelfD= 2).
 1st derivatives      : Analytical E(r).r(x)/FMM algorithm (CHGder, D1EAlg=3).
                        Cavity 1st derivative terms included.
 Solvent              : TetraHydroFuran, Eps=   7.425700 Eps(inf)=   1.974025
 ------------------------------------------------------------------------------
 GePol: Number of generator spheres                  =      51
 GePol: Total number of spheres                      =      51
 GePol: Number of exposed spheres                    =      51 (100.00%)
 GePol: Number of points                             =    3807
 GePol: Average weight of points                     =       0.13
 GePol: Minimum weight of points                     =   0.22D-10
 GePol: Maximum weight of points                     =    0.20577
 GePol: Number of points with low weight             =     271
 GePol: Fraction of low-weight points (<1% of avg)   =       7.12%
 GePol: Cavity surface area                          =    490.703 Ang**2
 GePol: Cavity volume                                =    556.461 Ang**3
 Leave Link  301 at Tue Feb  1 12:14:57 2022, MaxMem= 49660559360 cpu:               3.4 elap:               0.1
 (Enter /lustre1/prg/gaussian/bin/G16_C01_Linda_AVX2/g16/linda-exe/l302.exel)
 NPDir=0 NMtPBC=     1 NCelOv=     1 NCel=       1 NClECP=     1 NCelD=      1
         NCelK=      1 NCelE2=     1 NClLst=     1 CellRange=     0.0.
 One-electron integrals computed using PRISM.
 NBasis=   543 RedAO= T EigKep=  2.34D-04  NBF=   543
 NBsUse=   543 1.00D-06 EigRej= -1.00D+00 NBFU=   543
 Precomputing XC quadrature grid using
 IXCGrd= 4 IRadAn=           5 IRanWt=          -1 IRanGd=           0 AccXCQ= 0.00D+00.
 Generated NRdTot=       0 NPtTot=           0 NUsed=           0 NTot=          32
 NSgBfM=   557   557   557   557   557 MxSgAt=    51 MxSgA2=    51.
 Leave Link  302 at Tue Feb  1 12:14:59 2022, MaxMem= 49660559360 cpu:              37.3 elap:               1.2
 (Enter /lustre1/prg/gaussian/bin/G16_C01_Linda_AVX2/g16/l303.exe)
 DipDrv:  MaxL=1.
 Leave Link  303 at Tue Feb  1 12:14:59 2022, MaxMem= 49660559360 cpu:               5.1 elap:               0.2
 (Enter /lustre1/prg/gaussian/bin/G16_C01_Linda_AVX2/g16/l308.exe)
 Leave Link  308 at Tue Feb  1 12:15:00 2022, MaxMem= 49660559360 cpu:               6.3 elap:               0.2
 (Enter /lustre1/prg/gaussian/bin/G16_C01_Linda_AVX2/g16/linda-exe/l401.exel)
 ExpMin= 9.54D-02 ExpMax= 1.47D+04 ExpMxC= 5.03D+02 IAcc=3 IRadAn=         5 AccDes= 0.00D+00
 Harris functional with IExCor= 1009 and IRadAn=       5 diagonalized for initial guess.
 HarFok:  IExCor= 1009 AccDes= 0.00D+00 IRadAn=         5 IDoV= 1 UseB2=F ITyADJ=14
 ICtDFT=  3500011 ScaDFX=  1.000000  1.000000  1.000000  1.000000
 FoFCou: FMM=F IPFlag=           0 FMFlag=      100000 FMFlg1=           0
         NFxFlg=           0 DoJE=T BraDBF=F KetDBF=T FulRan=T
         wScrn=  0.000000 ICntrl=       500 IOpCl=  0 I1Cent=   200000004 NGrid=           0
         NMat0=    1 NMatS0=      1 NMatT0=    0 NMatD0=    1 NMtDS0=    0 NMtDT0=    0
 Symmetry not used in FoFCou.
 Harris En= -1373.28886088229    
 JPrj=0 DoOrth=F DoCkMO=F.
 Leave Link  401 at Tue Feb  1 12:15:03 2022, MaxMem= 49660559360 cpu:              77.0 elap:               2.5
 (Enter /lustre1/prg/gaussian/bin/G16_C01_Linda_AVX2/g16/linda-exe/l502.exel)
 Two-electron integral symmetry not used.
 Closed shell SCF:
 Using DIIS extrapolation, IDIIS=  1040.
 NGot= 49660559360 LenX= 49659873915 LenY= 49659542715
 Requested convergence on RMS density matrix=1.00D-08 within 128 cycles.
 Requested convergence on MAX density matrix=1.00D-06.
 Requested convergence on             energy=1.00D-06.
 No special actions if energy rises.
 Fock matrices will be formed incrementally for  20 cycles.

 Cycle   1  Pass 1  IDiag  1:
 FoFJK:  IHMeth= 1 ICntrl=       0 DoSepK=F KAlg= 0 I1Cent=           0 FoldK=F
 IRaf= 680000000 NMat=       1 IRICut=       1 DoRegI=T DoRafI=F ISym2E= 0 IDoP0=0 IntGTp=1.
 FoFCou: FMM=F IPFlag=           0 FMFlag=      100000 FMFlg1=           0
         NFxFlg=           0 DoJE=F BraDBF=F KetDBF=F FulRan=T
         wScrn=  0.000000 ICntrl=         0 IOpCl=  0 I1Cent=           0 NGrid=           0
         NMat0=    1 NMatS0=      1 NMatT0=    0 NMatD0=    1 NMtDS0=    0 NMtDT0=    0
 Symmetry not used in FoFCou.
 Inv3:  Mode=1 IEnd=    43479747.
 Iteration    1 A*A^-1 deviation from unit magnitude is 3.55D-15 for   1196.
 Iteration    1 A*A^-1 deviation from orthogonality  is 2.87D-15 for   1794   1220.
 Iteration    1 A^-1*A deviation from unit magnitude is 3.55D-15 for   1196.
 Iteration    1 A^-1*A deviation from orthogonality  is 2.48D-15 for   1760    890.
 E= -1373.63753869785    
 DIIS: error= 3.97D-02 at cycle   1 NSaved=   1.
 NSaved= 1 IEnMin= 1 EnMin= -1373.63753869785     IErMin= 1 ErrMin= 3.97D-02
 ErrMax= 3.97D-02  0.00D+00 EMaxC= 1.00D-01 BMatC= 5.18D-01 BMatP= 5.18D-01
 IDIUse=3 WtCom= 6.03D-01 WtEn= 3.97D-01
 Coeff-Com:  0.100D+01
 Coeff-En:   0.100D+01
 Coeff:      0.100D+01
 Gap=     0.146 Goal=   None    Shift=    0.000
 GapD=    0.146 DampG=1.000 DampE=0.500 DampFc=0.5000 IDamp=-1.
 Damping current iteration by 5.00D-01
 RMSDP=3.23D-03 MaxDP=1.24D-01              OVMax= 1.59D-01

 Cycle   2  Pass 1  IDiag  1:
 RMSU=  1.52D-03    CP:  9.62D-01
 E= -1373.91245634423     Delta-E=       -0.274917646381 Rises=F Damp=T
 DIIS: error= 7.80D-03 at cycle   2 NSaved=   2.
 NSaved= 2 IEnMin= 2 EnMin= -1373.91245634423     IErMin= 2 ErrMin= 7.80D-03
 ErrMax= 7.80D-03  0.00D+00 EMaxC= 1.00D-01 BMatC= 4.42D-02 BMatP= 5.18D-01
 IDIUse=3 WtCom= 9.22D-01 WtEn= 7.80D-02
 Coeff-Com: -0.145D+00 0.114D+01
 Coeff-En:   0.000D+00 0.100D+01
 Coeff:     -0.133D+00 0.113D+01
 Gap=     0.174 Goal=   None    Shift=    0.000
 RMSDP=1.11D-03 MaxDP=5.80D-02 DE=-2.75D-01 OVMax= 9.16D-02

 Cycle   3  Pass 1  IDiag  1:
 RMSU=  7.95D-04    CP:  9.36D-01  1.44D+00
 E= -1374.15311836670     Delta-E=       -0.240662022472 Rises=F Damp=F
 DIIS: error= 4.20D-03 at cycle   3 NSaved=   3.
 NSaved= 3 IEnMin= 3 EnMin= -1374.15311836670     IErMin= 3 ErrMin= 4.20D-03
 ErrMax= 4.20D-03  0.00D+00 EMaxC= 1.00D-01 BMatC= 1.66D-02 BMatP= 4.42D-02
 IDIUse=3 WtCom= 9.58D-01 WtEn= 4.20D-02
 Coeff-Com: -0.114D+00 0.461D+00 0.653D+00
 Coeff-En:   0.000D+00 0.000D+00 0.100D+01
 Coeff:     -0.109D+00 0.442D+00 0.667D+00
 Gap=     0.150 Goal=   None    Shift=    0.000
 RMSDP=3.25D-04 MaxDP=1.82D-02 DE=-2.41D-01 OVMax= 4.30D-02

 Cycle   4  Pass 1  IDiag  1:
 RMSU=  2.41D-04    CP:  9.38D-01  1.47D+00  7.34D-01
 E= -1374.16527136800     Delta-E=       -0.012153001293 Rises=F Damp=F
 DIIS: error= 2.41D-03 at cycle   4 NSaved=   4.
 NSaved= 4 IEnMin= 4 EnMin= -1374.16527136800     IErMin= 4 ErrMin= 2.41D-03
 ErrMax= 2.41D-03  0.00D+00 EMaxC= 1.00D-01 BMatC= 3.94D-03 BMatP= 1.66D-02
 IDIUse=3 WtCom= 9.76D-01 WtEn= 2.41D-02
 Coeff-Com: -0.404D-01 0.112D+00 0.363D+00 0.566D+00
 Coeff-En:   0.000D+00 0.000D+00 0.183D+00 0.817D+00
 Coeff:     -0.394D-01 0.109D+00 0.358D+00 0.572D+00
 Gap=     0.153 Goal=   None    Shift=    0.000
 RMSDP=1.23D-04 MaxDP=7.76D-03 DE=-1.22D-02 OVMax= 1.86D-02

 Cycle   5  Pass 1  IDiag  1:
 RMSU=  6.04D-05    CP:  9.37D-01  1.47D+00  8.12D-01  6.45D-01
 E= -1374.16900400520     Delta-E=       -0.003732637205 Rises=F Damp=F
 DIIS: error= 4.92D-04 at cycle   5 NSaved=   5.
 NSaved= 5 IEnMin= 5 EnMin= -1374.16900400520     IErMin= 5 ErrMin= 4.92D-04
 ErrMax= 4.92D-04  0.00D+00 EMaxC= 1.00D-01 BMatC= 1.90D-04 BMatP= 3.94D-03
 IDIUse=3 WtCom= 9.95D-01 WtEn= 4.92D-03
 Coeff-Com: -0.948D-02 0.158D-01 0.113D+00 0.259D+00 0.622D+00
 Coeff-En:   0.000D+00 0.000D+00 0.000D+00 0.000D+00 0.100D+01
 Coeff:     -0.944D-02 0.157D-01 0.112D+00 0.258D+00 0.624D+00
 Gap=     0.153 Goal=   None    Shift=    0.000
 RMSDP=2.86D-05 MaxDP=1.81D-03 DE=-3.73D-03 OVMax= 3.15D-03

 Cycle   6  Pass 1  IDiag  1:
 RMSU=  1.93D-05    CP:  9.37D-01  1.48D+00  8.16D-01  6.88D-01  7.08D-01
 E= -1374.16918841888     Delta-E=       -0.000184413678 Rises=F Damp=F
 DIIS: error= 1.39D-04 at cycle   6 NSaved=   6.
 NSaved= 6 IEnMin= 6 EnMin= -1374.16918841888     IErMin= 6 ErrMin= 1.39D-04
 ErrMax= 1.39D-04  0.00D+00 EMaxC= 1.00D-01 BMatC= 1.20D-05 BMatP= 1.90D-04
 IDIUse=3 WtCom= 9.99D-01 WtEn= 1.39D-03
 Coeff-Com: -0.167D-02 0.515D-03 0.251D-01 0.717D-01 0.264D+00 0.641D+00
 Coeff-En:   0.000D+00 0.000D+00 0.000D+00 0.000D+00 0.000D+00 0.100D+01
 Coeff:     -0.167D-02 0.514D-03 0.250D-01 0.716D-01 0.263D+00 0.641D+00
 Gap=     0.153 Goal=   None    Shift=    0.000
 RMSDP=8.41D-06 MaxDP=3.05D-04 DE=-1.84D-04 OVMax= 1.72D-03

 Cycle   7  Pass 1  IDiag  1:
 RMSU=  6.54D-06    CP:  9.37D-01  1.48D+00  8.18D-01  6.88D-01  7.79D-01
                    CP:  8.57D-01
 E= -1374.16920195856     Delta-E=       -0.000013539682 Rises=F Damp=F
 DIIS: error= 4.23D-05 at cycle   7 NSaved=   7.
 NSaved= 7 IEnMin= 7 EnMin= -1374.16920195856     IErMin= 7 ErrMin= 4.23D-05
 ErrMax= 4.23D-05  0.00D+00 EMaxC= 1.00D-01 BMatC= 1.18D-06 BMatP= 1.20D-05
 IDIUse=1 WtCom= 1.00D+00 WtEn= 0.00D+00
 Coeff-Com:  0.527D-03-0.182D-02-0.387D-02-0.333D-02 0.243D-01 0.234D+00
 Coeff-Com:  0.750D+00
 Coeff:      0.527D-03-0.182D-02-0.387D-02-0.333D-02 0.243D-01 0.234D+00
 Coeff:      0.750D+00
 Gap=     0.153 Goal=   None    Shift=    0.000
 RMSDP=3.30D-06 MaxDP=1.31D-04 DE=-1.35D-05 OVMax= 5.92D-04

 Cycle   8  Pass 1  IDiag  1:
 RMSU=  2.42D-06    CP:  9.37D-01  1.48D+00  8.18D-01  6.92D-01  7.88D-01
                    CP:  9.53D-01  9.94D-01
 E= -1374.16920352203     Delta-E=       -0.000001563474 Rises=F Damp=F
 DIIS: error= 1.76D-05 at cycle   8 NSaved=   8.
 NSaved= 8 IEnMin= 8 EnMin= -1374.16920352203     IErMin= 8 ErrMin= 1.76D-05
 ErrMax= 1.76D-05  0.00D+00 EMaxC= 1.00D-01 BMatC= 2.27D-07 BMatP= 1.18D-06
 IDIUse=1 WtCom= 1.00D+00 WtEn= 0.00D+00
 Coeff-Com:  0.612D-03-0.105D-02-0.669D-02-0.155D-01-0.395D-01-0.598D-02
 Coeff-Com:  0.349D+00 0.719D+00
 Coeff:      0.612D-03-0.105D-02-0.669D-02-0.155D-01-0.395D-01-0.598D-02
 Coeff:      0.349D+00 0.719D+00
 Gap=     0.153 Goal=   None    Shift=    0.000
 RMSDP=1.49D-06 MaxDP=6.99D-05 DE=-1.56D-06 OVMax= 3.85D-04

 Cycle   9  Pass 1  IDiag  1:
 RMSU=  7.64D-07    CP:  9.37D-01  1.48D+00  8.18D-01  6.93D-01  7.97D-01
                    CP:  9.87D-01  1.11D+00  8.02D-01
 E= -1374.16920385983     Delta-E=       -0.000000337793 Rises=F Damp=F
 DIIS: error= 3.50D-06 at cycle   9 NSaved=   9.
 NSaved= 9 IEnMin= 9 EnMin= -1374.16920385983     IErMin= 9 ErrMin= 3.50D-06
 ErrMax= 3.50D-06  0.00D+00 EMaxC= 1.00D-01 BMatC= 1.35D-08 BMatP= 2.27D-07
 IDIUse=1 WtCom= 1.00D+00 WtEn= 0.00D+00
 Coeff-Com:  0.176D-03-0.244D-03-0.194D-02-0.493D-02-0.148D-01-0.125D-01
 Coeff-Com:  0.674D-01 0.251D+00 0.716D+00
 Coeff:      0.176D-03-0.244D-03-0.194D-02-0.493D-02-0.148D-01-0.125D-01
 Coeff:      0.674D-01 0.251D+00 0.716D+00
 Gap=     0.153 Goal=   None    Shift=    0.000
 RMSDP=3.76D-07 MaxDP=2.68D-05 DE=-3.38D-07 OVMax= 5.72D-05

 Cycle  10  Pass 1  IDiag  1:
 RMSU=  2.69D-07    CP:  9.37D-01  1.48D+00  8.18D-01  6.93D-01  7.97D-01
                    CP:  9.94D-01  1.13D+00  8.75D-01  9.60D-01
 E= -1374.16920387678     Delta-E=       -0.000000016950 Rises=F Damp=F
 DIIS: error= 1.78D-06 at cycle  10 NSaved=  10.
 NSaved=10 IEnMin=10 EnMin= -1374.16920387678     IErMin=10 ErrMin= 1.78D-06
 ErrMax= 1.78D-06  0.00D+00 EMaxC= 1.00D-01 BMatC= 3.14D-09 BMatP= 1.35D-08
 IDIUse=1 WtCom= 1.00D+00 WtEn= 0.00D+00
 Coeff-Com: -0.157D-04 0.505D-04 0.223D-03 0.314D-03-0.434D-03-0.448D-02
 Coeff-Com: -0.308D-01 0.200D-02 0.343D+00 0.690D+00
 Coeff:     -0.157D-04 0.505D-04 0.223D-03 0.314D-03-0.434D-03-0.448D-02
 Coeff:     -0.308D-01 0.200D-02 0.343D+00 0.690D+00
 Gap=     0.154 Goal=   None    Shift=    0.000
 RMSDP=1.51D-07 MaxDP=7.46D-06 DE=-1.69D-08 OVMax= 3.46D-05

 Cycle  11  Pass 1  IDiag  1:
 RMSU=  9.68D-08    CP:  9.37D-01  1.48D+00  8.18D-01  6.93D-01  7.97D-01
                    CP:  9.97D-01  1.13D+00  8.89D-01  1.07D+00  8.80D-01
 E= -1374.16920388102     Delta-E=       -0.000000004242 Rises=F Damp=F
 DIIS: error= 5.22D-07 at cycle  11 NSaved=  11.
 NSaved=11 IEnMin=11 EnMin= -1374.16920388102     IErMin=11 ErrMin= 5.22D-07
 ErrMax= 5.22D-07  0.00D+00 EMaxC= 1.00D-01 BMatC= 2.72D-10 BMatP= 3.14D-09
 IDIUse=1 WtCom= 1.00D+00 WtEn= 0.00D+00
 Coeff-Com: -0.261D-04 0.477D-04 0.310D-03 0.693D-03 0.148D-02-0.315D-03
 Coeff-Com: -0.217D-01-0.276D-01 0.453D-01 0.273D+00 0.729D+00
 Coeff:     -0.261D-04 0.477D-04 0.310D-03 0.693D-03 0.148D-02-0.315D-03
 Coeff:     -0.217D-01-0.276D-01 0.453D-01 0.273D+00 0.729D+00
 Gap=     0.154 Goal=   None    Shift=    0.000
 RMSDP=5.09D-08 MaxDP=2.13D-06 DE=-4.24D-09 OVMax= 9.41D-06

 Cycle  12  Pass 1  IDiag  1:
 RMSU=  2.90D-08    CP:  9.37D-01  1.48D+00  8.18D-01  6.93D-01  7.98D-01
                    CP:  9.97D-01  1.13D+00  8.94D-01  1.10D+00  9.76D-01
                    CP:  9.30D-01
 E= -1374.16920388138     Delta-E=       -0.000000000360 Rises=F Damp=F
 DIIS: error= 1.69D-07 at cycle  12 NSaved=  12.
 NSaved=12 IEnMin=12 EnMin= -1374.16920388138     IErMin=12 ErrMin= 1.69D-07
 ErrMax= 1.69D-07  0.00D+00 EMaxC= 1.00D-01 BMatC= 2.16D-11 BMatP= 2.72D-10
 IDIUse=1 WtCom= 1.00D+00 WtEn= 0.00D+00
 Coeff-Com: -0.696D-05 0.109D-04 0.842D-04 0.201D-03 0.504D-03 0.360D-03
 Coeff-Com: -0.477D-02-0.730D-02-0.137D-01 0.431D-01 0.262D+00 0.720D+00
 Coeff:     -0.696D-05 0.109D-04 0.842D-04 0.201D-03 0.504D-03 0.360D-03
 Coeff:     -0.477D-02-0.730D-02-0.137D-01 0.431D-01 0.262D+00 0.720D+00
 Gap=     0.154 Goal=   None    Shift=    0.000
 RMSDP=1.18D-08 MaxDP=7.06D-07 DE=-3.60D-10 OVMax= 2.81D-06

 Cycle  13  Pass 1  IDiag  1:
 RMSU=  8.30D-09    CP:  9.37D-01  1.48D+00  8.18D-01  6.93D-01  7.98D-01
                    CP:  9.97D-01  1.13D+00  8.95D-01  1.10D+00  9.88D-01
                    CP:  9.95D-01  9.53D-01
 E= -1374.16920388138     Delta-E=       -0.000000000001 Rises=F Damp=F
 DIIS: error= 4.52D-08 at cycle  13 NSaved=  13.
 NSaved=13 IEnMin=13 EnMin= -1374.16920388138     IErMin=13 ErrMin= 4.52D-08
 ErrMax= 4.52D-08  0.00D+00 EMaxC= 1.00D-01 BMatC= 2.25D-12 BMatP= 2.16D-11
 IDIUse=1 WtCom= 1.00D+00 WtEn= 0.00D+00
 Coeff-Com:  0.791D-06-0.190D-05-0.767D-05-0.150D-04-0.519D-05 0.156D-03
 Coeff-Com:  0.590D-03 0.117D-02-0.107D-01-0.155D-01-0.979D-02 0.189D+00
 Coeff-Com:  0.845D+00
 Coeff:      0.791D-06-0.190D-05-0.767D-05-0.150D-04-0.519D-05 0.156D-03
 Coeff:      0.590D-03 0.117D-02-0.107D-01-0.155D-01-0.979D-02 0.189D+00
 Coeff:      0.845D+00
 Gap=     0.154 Goal=   None    Shift=    0.000
 RMSDP=5.65D-09 MaxDP=1.72D-07 DE=-1.36D-12 OVMax= 1.03D-06

 Error on total polarization charges =  0.01428
 SCF Done:  E(RM062X) =  -1374.16920388     A.U. after   13 cycles
            NFock= 13  Conv=0.57D-08     -V/T= 2.0063
 KE= 1.365500776586D+03 PE=-8.895160847677D+03 EE= 3.307917184479D+03
 Leave Link  502 at Tue Feb  1 12:16:34 2022, MaxMem= 49660559360 cpu:            2791.4 elap:              90.2
 (Enter /lustre1/prg/gaussian/bin/G16_C01_Linda_AVX2/g16/l801.exe)
 DoSCS=F DFT=T ScalE2(SS,OS)=  1.000000  1.000000
 ExpMin= 9.54D-02 ExpMax= 1.47D+04 ExpMxC= 5.03D+02 IAcc=3 IRadAn=         5 AccDes= 0.00D+00
 HarFok:  IExCor=  205 AccDes= 0.00D+00 IRadAn=         5 IDoV=-2 UseB2=F ITyADJ=14
 ICtDFT= 12500011 ScaDFX=  1.000000  1.000000  1.000000  1.000000
 GSVD:  LWork=       -1280 too small for GESVD, short by        5600 words or        5600 for optimal perf.
 Largest valence mixing into a core orbital is  7.99D-05
 Largest core mixing into a valence orbital is  5.12D-05
 Range of M.O.s used for correlation:    33   543
 NBasis=   543 NAE=   109 NBE=   109 NFC=    32 NFV=     0
 NROrb=    511 NOA=    77 NOB=    77 NVA=   434 NVB=   434

 **** Warning!!: The largest alpha MO coefficient is  0.14004230D+02

 Leave Link  801 at Tue Feb  1 12:16:35 2022, MaxMem= 49660559360 cpu:               4.8 elap:               0.2
 (Enter /lustre1/prg/gaussian/bin/G16_C01_Linda_AVX2/g16/linda-exe/l914.exel)
 RHF ground state
 Two-electron integral symmetry not used.
 MDV= 49660559360 DFT=T DoStab=F Mixed=T DoRPA=T DoScal=F NonHer=T
 NEqPCM:  Using equilibrium solvation (IEInf=0, Eps=   7.4257, EpsInf=   1.9740)
 Making orbital integer symmetry assigments:
    24 initial guesses have been made.
 Convergence on wavefunction:    0.000001000000000
 Davidson Disk Diagonalization:  ConvIn= 1.00D-06 SkipCon=T Conv= 1.00D-06.
 Max sub-space:  2000 roots to seek:    24 dimension of matrix:        66836
 Iteration     1 Dimension    24 NMult     0 NNew     24
 CISAX will form    24 AO SS matrices at one time.
 NMat=    24 NSing=    24 JSym2X= 0.
 FoFJK:  IHMeth= 1 ICntrl=       0 DoSepK=F KAlg= 0 I1Cent=           0 FoldK=F
 IRaf= 680000000 NMat=      48 IRICut=      60 DoRegI=T DoRafI=T ISym2E= 0 IDoP0=3 IntGTp=3.
 FoFCou: FMM=F IPFlag=           0 FMFlag=      100000 FMFlg1=           0
         NFxFlg=           0 DoJE=F BraDBF=F KetDBF=F FulRan=T
         wScrn=  0.000000 ICntrl=         0 IOpCl=  0 I1Cent=           0 NGrid=           0
         NMat0=   48 NMatS0=     24 NMatT0=    0 NMatD0=   48 NMtDS0=    0 NMtDT0=    0
 Symmetry not used in FoFCou.
 Raff kept on since  63.90% of shell-pairs survive, threshold=   0.20 IRatSp=64.
 New state      4 was old state      6
 New state      5 was old state      7
 New state      6 was old state      5
 Excitation Energies [eV] at current iteration:
 Root      1 :     2.641091630647161
 Root      2 :     3.544734263086104
 Root      3 :     3.997971490432301
 Root      4 :     4.125818965395811
 Root      5 :     4.389788099165512
 Root      6 :     4.606175287693052
 Root      7 :     4.613311817615126
 Root      8 :     5.235279154975362
 Root      9 :     5.373419265231437
 Root     10 :     5.381725310715707
 Root     11 :     5.533598351176299
 Root     12 :     5.545738182866637
 Root     13 :     5.696354576545725
 Root     14 :     5.972259013884252
 Root     15 :     6.022952741978247
 Root     16 :     6.332737561936634
 Root     17 :     6.417773286227752
 Root     18 :     6.425075783580718
 Root     19 :     6.578665344018216
 Root     20 :     6.604666809978943
 Root     21 :     6.659063167770819
 Root     22 :     6.769283099658683
 Root     23 :     6.896713094722760
 Root     24 :     7.073107937122697
 Iteration     2 Dimension    36 NMult    24 NNew     12
 CISAX will form    12 AO SS matrices at one time.
 NMat=    12 NSing=    12 JSym2X= 0.
 Root      1 not converged, maximum delta is    0.074077878331110
 Root      2 not converged, maximum delta is    0.056178327364078
 Root      3 not converged, maximum delta is    0.043660523557962
 Root      4 not converged, maximum delta is    0.041060507421677
 Root      5 not converged, maximum delta is    0.046937270699746
 Root      6 not converged, maximum delta is    0.044718209208795
 Excitation Energies [eV] at current iteration:
 Root      1 :     2.276007766929494   Change is   -0.365083863717667
 Root      2 :     3.236507138322107   Change is   -0.308227124763997
 Root      3 :     3.587140125845317   Change is   -0.410831364586983
 Root      4 :     3.848439125296490   Change is   -0.277379840099321
 Root      5 :     4.232836500499584   Change is   -0.156951598665927
 Root      6 :     4.549865830138319   Change is   -0.056309457554733
 Iteration     3 Dimension    48 NMult    36 NNew     12
 CISAX will form    12 AO SS matrices at one time.
 NMat=    12 NSing=    12 JSym2X= 0.
 Root      1 not converged, maximum delta is    0.013870609435927
 Root      2 not converged, maximum delta is    0.005924266547877
 Root      3 not converged, maximum delta is    0.014323008705562
 Root      4 not converged, maximum delta is    0.011295052326642
 Root      5 not converged, maximum delta is    0.041083875132832
 Root      6 not converged, maximum delta is    0.031844783488496
 Excitation Energies [eV] at current iteration:
 Root      1 :     2.254220477029121   Change is   -0.021787289900373
 Root      2 :     3.223251450588994   Change is   -0.013255687733113
 Root      3 :     3.569362129223910   Change is   -0.017777996621408
 Root      4 :     3.834895283580710   Change is   -0.013543841715779
 Root      5 :     4.208961490800522   Change is   -0.023875009699062
 Root      6 :     4.536763209682704   Change is   -0.013102620455615
 Iteration     4 Dimension    60 NMult    48 NNew     12
 CISAX will form    12 AO SS matrices at one time.
 NMat=    12 NSing=    12 JSym2X= 0.
 Root      1 not converged, maximum delta is    0.003157033627280
 Root      2 not converged, maximum delta is    0.003111980161957
 Root      3 not converged, maximum delta is    0.003575973903093
 Root      4 not converged, maximum delta is    0.005836848303272
 Root      5 not converged, maximum delta is    0.012844916376836
 Root      6 not converged, maximum delta is    0.011887678584987
 Excitation Energies [eV] at current iteration:
 Root      1 :     2.252132236938377   Change is   -0.002088240090743
 Root      2 :     3.220881421555579   Change is   -0.002370029033415
 Root      3 :     3.566566128302866   Change is   -0.002796000921044
 Root      4 :     3.832409715654423   Change is   -0.002485567926288
 Root      5 :     4.205597377000783   Change is   -0.003364113799740
 Root      6 :     4.533800804436495   Change is   -0.002962405246208
 Iteration     5 Dimension    72 NMult    60 NNew     12
 CISAX will form    12 AO SS matrices at one time.
 NMat=    12 NSing=    12 JSym2X= 0.
 Root      1 not converged, maximum delta is    0.000519997432098
 Root      2 not converged, maximum delta is    0.000869254848478
 Root      3 not converged, maximum delta is    0.000892448871809
 Root      4 not converged, maximum delta is    0.001140217844308
 Root      5 not converged, maximum delta is    0.002625588054420
 Root      6 not converged, maximum delta is    0.007164456855955
 Excitation Energies [eV] at current iteration:
 Root      1 :     2.252034576786352   Change is   -0.000097660152026
 Root      2 :     3.220761998019534   Change is   -0.000119423536045
 Root      3 :     3.566359173712466   Change is   -0.000206954590400
 Root      4 :     3.832170610746023   Change is   -0.000239104908399
 Root      5 :     4.205262222220868   Change is   -0.000335154779915
 Root      6 :     4.533568661433021   Change is   -0.000232143003475
 Iteration     6 Dimension    84 NMult    72 NNew     12
 CISAX will form    12 AO SS matrices at one time.
 NMat=    12 NSing=    12 JSym2X= 0.
 Root      1 not converged, maximum delta is    0.000099580322619
 Root      2 not converged, maximum delta is    0.000352852982402
 Root      3 not converged, maximum delta is    0.000241899921295
 Root      4 not converged, maximum delta is    0.000437385427654
 Root      5 not converged, maximum delta is    0.000654410310002
 Root      6 not converged, maximum delta is    0.015401900563211
 Excitation Energies [eV] at current iteration:
 Root      1 :     2.252029749743381   Change is   -0.000004827042971
 Root      2 :     3.220748910923618   Change is   -0.000013087095916
 Root      3 :     3.566346147482829   Change is   -0.000013026229637
 Root      4 :     3.832143174506149   Change is   -0.000027436239874
 Root      5 :     4.205237017169402   Change is   -0.000025205051466
 Root      6 :     4.533504073686846   Change is   -0.000064587746175
 Iteration     7 Dimension    96 NMult    84 NNew     12
 CISAX will form    12 AO SS matrices at one time.
 NMat=    12 NSing=    12 JSym2X= 0.
 Root      1 not converged, maximum delta is    0.000022796112367
 Root      2 not converged, maximum delta is    0.000125066117567
 Root      3 not converged, maximum delta is    0.000090217290174
 Root      4 not converged, maximum delta is    0.000215078425191
 Root      5 not converged, maximum delta is    0.000279167964181
 Root      6 not converged, maximum delta is    0.142352542641963
 Excitation Energies [eV] at current iteration:
 Root      1 :     2.252029434343132   Change is   -0.000000315400249
 Root      2 :     3.220747694791634   Change is   -0.000001216131984
 Root      3 :     3.566345048041518   Change is   -0.000001099441311
 Root      4 :     3.832139448048115   Change is   -0.000003726458034
 Root      5 :     4.205234110480653   Change is   -0.000002906688749
 Root      6 :     4.533129261120558   Change is   -0.000374812566288
 Iteration     8 Dimension   108 NMult    96 NNew     12
 CISAX will form    12 AO SS matrices at one time.
 NMat=    12 NSing=    12 JSym2X= 0.
 Root      1 not converged, maximum delta is    0.000006045090784
 Root      2 not converged, maximum delta is    0.000030341515898
 Root      3 not converged, maximum delta is    0.000019226865727
 Root      4 not converged, maximum delta is    0.000055618585347
 Root      5 not converged, maximum delta is    0.000042411214746
 Root      6 not converged, maximum delta is    0.345933065893219
 Excitation Energies [eV] at current iteration:
 Root      1 :     2.252029418339341   Change is   -0.000000016003791
 Root      2 :     3.220747571797997   Change is   -0.000000122993637
 Root      3 :     3.566344982345973   Change is   -0.000000065695545
 Root      4 :     3.832139154894263   Change is   -0.000000293153852
 Root      5 :     4.205233827604455   Change is   -0.000000282876198
 Root      6 :     4.531504180116764   Change is   -0.001625081003793
 Iteration     9 Dimension   120 NMult   108 NNew     12
 CISAX will form    12 AO SS matrices at one time.
 NMat=    12 NSing=    12 JSym2X= 0.
 Root      1 not converged, maximum delta is    0.000001174480165
 Root      2 not converged, maximum delta is    0.000003385870523
 Root      3 not converged, maximum delta is    0.000006067136709
 Root      4 not converged, maximum delta is    0.000008086788185
 Root      5 not converged, maximum delta is    0.000017356772603
 Root      6 not converged, maximum delta is    0.041220805295479
 Excitation Energies [eV] at current iteration:
 Root      1 :     2.252029417764297   Change is   -0.000000000575043
 Root      2 :     3.220747565410220   Change is   -0.000000006387777
 Root      3 :     3.566344977212672   Change is   -0.000000005133300
 Root      4 :     3.832139134012747   Change is   -0.000000020881516
 Root      5 :     4.205233805124579   Change is   -0.000000022479876
 Root      6 :     4.531170942084286   Change is   -0.000333238032479
 Iteration    10 Dimension   132 NMult   120 NNew     12
 CISAX will form    12 AO SS matrices at one time.
 NMat=    12 NSing=    12 JSym2X= 0.
 Root      1 has converged.
 Root      2 has converged.
 Root      3 not converged, maximum delta is    0.000001009612149
 Root      4 not converged, maximum delta is    0.000002727451122
 Root      5 not converged, maximum delta is    0.000006025282709
 Root      6 not converged, maximum delta is    0.003322734860758
 Excitation Energies [eV] at current iteration:
 Root      1 :     2.252029417740752   Change is   -0.000000000023545
 Root      2 :     3.220747565086953   Change is   -0.000000000323266
 Root      3 :     3.566344976987672   Change is   -0.000000000225000
 Root      4 :     3.832139132524742   Change is   -0.000000001488005
 Root      5 :     4.205233802907347   Change is   -0.000000002217232
 Root      6 :     4.531139424790129   Change is   -0.000031517294157
 Iteration    11 Dimension   140 NMult   132 NNew      8
 CISAX will form     8 AO SS matrices at one time.
 NMat=     8 NSing=     8 JSym2X= 0.
 Root      1 has converged.
 Root      2 has converged.
 Root      3 has converged.
 Root      4 has converged.
 Root      5 not converged, maximum delta is    0.000001133266779
 Root      6 not converged, maximum delta is    0.000294871736408
 Excitation Energies [eV] at current iteration:
 Root      1 :     2.252029417740606   Change is   -0.000000000000146
 Root      2 :     3.220747565085499   Change is   -0.000000000001455
 Root      3 :     3.566344976972089   Change is   -0.000000000015583
 Root      4 :     3.832139132407977   Change is   -0.000000000116764
 Root      5 :     4.205233802726599   Change is   -0.000000000180749
 Root      6 :     4.531136751638907   Change is   -0.000002673151222
 Iteration    12 Dimension   144 NMult   140 NNew      4
 CISAX will form     4 AO SS matrices at one time.
 NMat=     4 NSing=     4 JSym2X= 0.
 Root      1 has converged.
 Root      2 has converged.
 Root      3 has converged.
 Root      4 has converged.
 Root      5 has converged.
 Root      6 not converged, maximum delta is    0.000033889388825
 Excitation Energies [eV] at current iteration:
 Root      1 :     2.252029417740424   Change is   -0.000000000000182
 Root      2 :     3.220747565085090   Change is   -0.000000000000409
 Root      3 :     3.566344976972021   Change is   -0.000000000000069
 Root      4 :     3.832139132406926   Change is   -0.000000000001051
 Root      5 :     4.205233802714049   Change is   -0.000000000012550
 Root      6 :     4.531136544424665   Change is   -0.000000207214241
 Iteration    13 Dimension   146 NMult   144 NNew      2
 CISAX will form     2 AO SS matrices at one time.
 NMat=     2 NSing=     2 JSym2X= 0.
 Root      1 has converged.
 Root      2 has converged.
 Root      3 has converged.
 Root      4 has converged.
 Root      5 has converged.
 Root      6 not converged, maximum delta is    0.000011428881926
 Excitation Energies [eV] at current iteration:
 Root      1 :     2.252029417740351   Change is   -0.000000000000073
 Root      2 :     3.220747565084146   Change is   -0.000000000000944
 Root      3 :     3.566344976972089   Change is    0.000000000000069
 Root      4 :     3.832139132406626   Change is   -0.000000000000300
 Root      5 :     4.205233802714010   Change is   -0.000000000000039
 Root      6 :     4.531136527803318   Change is   -0.000000016621347
 Iteration    14 Dimension   148 NMult   146 NNew      2
 CISAX will form     2 AO SS matrices at one time.
 NMat=     2 NSing=     2 JSym2X= 0.
 Root      1 has converged.
 Root      2 has converged.
 Root      3 has converged.
 Root      4 has converged.
 Root      5 has converged.
 Root      6 not converged, maximum delta is    0.000002501907099
 Excitation Energies [eV] at current iteration:
 Root      1 :     2.252029417740424   Change is    0.000000000000073
 Root      2 :     3.220747565081976   Change is   -0.000000000002170
 Root      3 :     3.566344976971997   Change is   -0.000000000000092
 Root      4 :     3.832139132406455   Change is   -0.000000000000171
 Root      5 :     4.205233802713971   Change is   -0.000000000000039
 Root      6 :     4.531136526555474   Change is   -0.000000001247843
 Iteration    15 Dimension   150 NMult   148 NNew      2
 CISAX will form     2 AO SS matrices at one time.
 NMat=     2 NSing=     2 JSym2X= 0.
 Root      1 has converged.
 Root      2 has converged.
 Root      3 has converged.
 Root      4 has converged.
 Root      5 has converged.
 Root      6 has converged.
 Excitation Energies [eV] at current iteration:
 Root      1 :     2.252029417740315   Change is   -0.000000000000110
 Root      2 :     3.220747565080394   Change is   -0.000000000001582
 Root      3 :     3.566344976971997   Change is    0.000000000000000
 Root      4 :     3.832139132406369   Change is   -0.000000000000086
 Root      5 :     4.205233802713971   Change is    0.000000000000000
 Root      6 :     4.531136526439415   Change is   -0.000000000116060
 Convergence achieved on expansion vectors.
 ***********************************************************************
 Excited states from <AA,BB:AA,BB> singles matrix:
 ***********************************************************************
 
 1PDM for each excited state written to RWF  633
 Ground to excited state transition densities written to RWF  633
 Ground to excited state transition electric dipole moments (Au):
       state          X           Y           Z        Dip. S.      Osc.
         1         2.8687      0.0381     -2.6226     15.1091      0.8336
         2        -0.1325      1.6100      0.0169      2.6101      0.2060
         3         1.4058      0.0380     -1.2953      3.6557      0.3194
         4        -0.0236      1.6759     -0.0481      2.8116      0.2640
         5        -0.2180      0.0500     -0.1855      0.0844      0.0087
         6         0.0740      0.2179     -0.0999      0.0629      0.0070
 Ground to excited state transition velocity dipole moments (Au):
       state          X           Y           Z        Dip. S.      Osc.
         1        -0.2428     -0.0032      0.2210      0.1078      0.8682
         2         0.0148     -0.1906     -0.0037      0.0365      0.2058
         3        -0.1903     -0.0051      0.1747      0.0668      0.3397
         4         0.0037     -0.2373      0.0072      0.0564      0.2669
         5         0.0396     -0.0077      0.0287      0.0025      0.0106
         6        -0.0150     -0.0385      0.0175      0.0020      0.0081
 Ground to excited state transition magnetic dipole moments (Au):
       state          X           Y           Z
         1        -2.9220     -4.8623     -3.2820
         2         0.0166      0.0539     -4.0194
         3        -2.8444     -3.7307     -3.1875
         4        -0.2124     -0.2072     -5.1332
         5        -0.3578     -0.6157     -0.1599
         6        -0.4145     -0.3992     -1.3089
 Ground to excited state transition velocity quadrupole moments (Au):
       state          XX          YY          ZZ          XY          XZ          YZ
         1       -11.0117      0.1166      0.1069      4.1030      4.9575     -3.7889
         2         1.9112      5.2433      1.1242     -4.4434     -1.2940      0.0580
         3        -8.5198      0.1760      0.0530      2.9924      3.8825     -2.8421
         4         0.7962      5.5890      0.6432     -5.3203     -0.5370     -0.1581
         5         1.7301      0.1561      0.0091     -0.3782      0.6388     -0.4171
         6        -0.6179      1.3916      0.0348     -0.7684      0.3446     -0.1645
 <0|del|b> * <b|rxdel|0> + <0|del|b> * <b|delr+rdel|0>
 Rotatory Strengths (R) in cgs (10**-40 erg-esu-cm/Gauss)
[...]
 Alpha virt. eigenvalues --    1.18978   1.20155   1.22259   1.22395   1.24388
 Alpha virt. eigenvalues --    1.28271   1.30929   1.31424   1.32151   1.32803
 Alpha virt. eigenvalues --    1.33439   1.34170   1.34924   1.35432   1.35761
 Alpha virt. eigenvalues --    1.35876   1.36466   1.36514   1.37680   1.38817
 Alpha virt. eigenvalues --    1.39432   1.40241   1.40456   1.41439   1.41886
 Alpha virt. eigenvalues --    1.42595   1.43764   1.45788   1.47792   1.48639
 Alpha virt. eigenvalues --    1.49072   1.50261   1.50495   1.50960   1.51494
 Alpha virt. eigenvalues --    1.51954   1.52351   1.52569   1.52753   1.53169
 Alpha virt. eigenvalues --    1.53493   1.54588   1.54697   1.54828   1.55484
 Alpha virt. eigenvalues --    1.56224   1.57698   1.58956   1.59391   1.61288
 Alpha virt. eigenvalues --    1.61831   1.62396   1.62442   1.62836   1.63265
 Alpha virt. eigenvalues --    1.63615   1.64407   1.64495   1.64571   1.64758
 Alpha virt. eigenvalues --    1.65009   1.65601   1.66087   1.66382   1.66513
 Alpha virt. eigenvalues --    1.66859   1.67396   1.67580   1.67979   1.68604
 Alpha virt. eigenvalues --    1.68986   1.69679   1.69874   1.70281   1.70903
 Alpha virt. eigenvalues --    1.71397   1.71547   1.72451   1.73667   1.74193
 Alpha virt. eigenvalues --    1.74718   1.75303   1.75563   1.76838   1.77218
 Alpha virt. eigenvalues --    1.78037   1.78451   1.78723   1.79024   1.79462
 Alpha virt. eigenvalues --    1.79900   1.80316   1.80607   1.81034   1.81497
 Alpha virt. eigenvalues --    1.82348   1.82629   1.83445   1.84087   1.84569
 Alpha virt. eigenvalues --    1.85394   1.85804   1.86521   1.87180   1.87237
 Alpha virt. eigenvalues --    1.87655   1.87817   1.88413   1.88711   1.89016
 Alpha virt. eigenvalues --    1.89111   1.89508   1.90380   1.90505   1.90968
 Alpha virt. eigenvalues --    1.91151   1.92108   1.92730   1.94246   1.94731
 Alpha virt. eigenvalues --    1.95652   1.97406   1.97899   1.98010   1.99375
 Alpha virt. eigenvalues --    1.99737   2.00079   2.00353   2.00680   2.01880
 Alpha virt. eigenvalues --    2.02362   2.02467   2.03232   2.03593   2.03756
 Alpha virt. eigenvalues --    2.03958   2.06931   2.08212   2.10503   2.10662
 Alpha virt. eigenvalues --    2.12266   2.13539   2.15583   2.15628   2.16204
 Alpha virt. eigenvalues --    2.18051   2.18663   2.20912   2.22323   2.22585
 Alpha virt. eigenvalues --    2.23153   2.23210   2.26525   2.27808   2.29211
 Alpha virt. eigenvalues --    2.29890   2.30713   2.31762   2.32008   2.33616
 Alpha virt. eigenvalues --    2.35287   2.35870   2.37715   2.39664   2.40078
 Alpha virt. eigenvalues --    2.40246   2.41041   2.41862   2.43006   2.43654
 Alpha virt. eigenvalues --    2.45343   2.45498   2.46328   2.46633   2.46789
 Alpha virt. eigenvalues --    2.47576   2.49102   2.49258   2.49356   2.50813
 Alpha virt. eigenvalues --    2.52312   2.55680   2.56000   2.58132   2.64341
 Alpha virt. eigenvalues --    2.65570   2.65910   2.66118   2.69069   2.69853
 Alpha virt. eigenvalues --    2.71436   2.71960   2.73009   2.73144   2.74120
 Alpha virt. eigenvalues --    2.75993   2.76412   2.81923   2.83476   2.85524
 Alpha virt. eigenvalues --    2.85884   2.88904   2.89227   2.92640   2.95666
 Alpha virt. eigenvalues --    2.95926   3.00283   3.09713   3.11696   3.14738
 Alpha virt. eigenvalues --    3.17291   3.56563   3.59517   3.59782   3.68354
 Alpha virt. eigenvalues --    3.68641   3.71951   3.74999   3.75667   3.90752
 Alpha virt. eigenvalues --    4.02033   4.06051   4.13682   4.14686
          Condensed to atoms (all electrons):
 Mulliken charges:
               1
     1  N   -0.180925
     2  C    0.115330
     3  C   -0.028018
     4  C   -0.080759
     5  C    0.120914
     6  C    0.001967
     7  C    0.008281
     8  C    0.005451
     9  C    0.006946
    10  C   -0.002919
    11  C   -0.090012
    12  C    0.112595
    13  C    0.114106
    14  C   -0.073016
    15  C   -0.030405
    16  C    0.114694
    17  N   -0.176855
    18  F   -0.236825
    19  B    0.180227
    20  F   -0.228484
    21  H    0.065231
    22  H    0.030956
    23  H    0.022675
    24  H    0.028865
    25  H    0.028481
    26  H    0.028728
    27  H    0.024988
    28  H    0.030893
    29  H    0.064563
    30  C    0.013923
    31  C   -0.040018
    32  C   -0.044000
    33  C    0.011669
    34  C    0.011079
    35  C   -0.006885
    36  H    0.008448
    37  H    0.008204
    38  H    0.016422
    39  H    0.017203
    40  H    0.015331
    41  C    0.015209
    42  C   -0.040502
    43  C   -0.044531
    44  C    0.011602
    45  C    0.011159
    46  C   -0.007245
    47  H    0.008496
    48  H    0.008152
    49  H    0.016375
    50  H    0.017045
    51  H    0.015193
 Sum of Mulliken charges =  -0.00000
 Mulliken charges with hydrogens summed into heavy atoms:
               1
     1  N   -0.180925
     2  C    0.180561
     3  C   -0.028018
     4  C   -0.049804
     5  C    0.120914
     6  C    0.024642
     7  C    0.037146
     8  C    0.033932
     9  C    0.035673
    10  C    0.022069
    11  C   -0.090012
    12  C    0.112595
    13  C    0.114106
    14  C   -0.042124
    15  C   -0.030405
    16  C    0.179257
    17  N   -0.176855
    18  F   -0.236825
    19  B    0.180227
    20  F   -0.228484
    30  C    0.013923
    31  C   -0.031569
    32  C   -0.035796
    33  C    0.028091
    34  C    0.028281
    35  C    0.008446
    41  C    0.015209
    42  C   -0.032006
    43  C   -0.036379
    44  C    0.027977
    45  C    0.028204
    46  C    0.007948
 Electronic spatial extent (au):  <R**2>=         179673.7666
 Charge=             -0.0000 electrons
 Dipole moment (field-independent basis, Debye):
    X=              1.1496    Y=              6.8369    Z=              1.4557  Tot=              7.0840
 Quadrupole moment (field-independent basis, Debye-Ang):
   XX=           -138.3689   YY=           -270.2614   ZZ=           -178.3740
   XY=             68.0287   XZ=             -4.0959   YZ=            -15.4632
 Traceless Quadrupole moment (field-independent basis, Debye-Ang):
   XX=             57.2992   YY=            -74.5933   ZZ=             17.2941
   XY=             68.0287   XZ=             -4.0959   YZ=            -15.4632
 Octapole moment (field-independent basis, Debye-Ang**2):
  XXX=          -5378.1471  YYY=           5362.6430  ZZZ=             21.2421  XYY=          -3063.8736
  XXY=           2012.4786  XXZ=           -316.2122  XZZ=          -2126.8890  YZZ=           1438.6754
  YYZ=            166.4594  XYZ=             19.5598
 Hexadecapole moment (field-independent basis, Debye-Ang**3):
 XXXX=        -140885.3346 YYYY=         -86474.0570 ZZZZ=          -8723.9794 XXXY=          53937.9169
 XXXZ=          -3303.8158 YYYX=          62065.1065 YYYZ=          -1750.6782 ZZZX=           4190.3307
 ZZZY=           -206.3178 XXYY=         -48114.5525 XXZZ=         -27766.7633 YYZZ=         -13800.1524
 XXYZ=           2777.8243 YYXZ=           1341.6686 ZZXY=          17177.4306
 N-N= 2.846666860252D+03 E-N=-8.893322901389D+03  KE= 1.365469775307D+03

 **********************************************************************

            Population analysis using the CI Rho(1) Density.

 **********************************************************************

          Condensed to atoms (all electrons):
 Mulliken charges:
               1
     1  N   -0.179241
     2  C    0.110997
     3  C    0.054965
     4  C   -0.189563
     5  C    0.238407
     6  C   -0.019552
     7  C    0.006802
     8  C   -0.015441
     9  C    0.005703
    10  C   -0.025453
    11  C   -0.095546
    12  C   -0.163472
    13  C    0.231475
    14  C   -0.179973
    15  C    0.054316
    16  C    0.112281
    17  N   -0.174835
    18  F   -0.237665
    19  B    0.173043
    20  F   -0.230514
    21  H    0.064790
    22  H    0.029717
    23  H    0.022766
    24  H    0.028495
    25  H    0.028342
    26  H    0.028372
    27  H    0.024899
    28  H    0.029456
    29  H    0.064101
    30  C    0.030979
    31  C   -0.021961
    32  C   -0.020802
    33  C    0.014646
    34  C    0.011630
    35  C    0.020490
    36  H    0.008485
    37  H    0.008197
    38  H    0.016417
    39  H    0.017193
    40  H    0.015464
    41  C    0.032278
    42  C   -0.022003
    43  C   -0.020987
    44  C    0.014631
    45  C    0.011727
    46  C    0.020567
    47  H    0.008470
    48  H    0.008168
    49  H    0.016372
    50  H    0.017036
    51  H    0.015330
 Sum of Mulliken charges =  -0.00000
 Mulliken charges with hydrogens summed into heavy atoms:
               1
     1  N   -0.179241
     2  C    0.175787
     3  C    0.054965
     4  C   -0.159846
     5  C    0.238407
     6  C    0.003214
     7  C    0.035296
     8  C    0.012901
     9  C    0.034076
    10  C   -0.000554
    11  C   -0.095546
    12  C   -0.163472
    13  C    0.231475
    14  C   -0.150517
    15  C    0.054316
    16  C    0.176381
    17  N   -0.174835
    18  F   -0.237665
    19  B    0.173043
    20  F   -0.230514
    30  C    0.030979
    31  C   -0.013476
    32  C   -0.012605
    33  C    0.031063
    34  C    0.028823
    35  C    0.035954
    41  C    0.032278
    42  C   -0.013533
    43  C   -0.012819
    44  C    0.031003
    45  C    0.028763
    46  C    0.035898
 Electronic spatial extent (au):  <R**2>=         179598.5621
 Charge=              0.0000 electrons
 Dipole moment (field-independent basis, Debye):
    X=              1.4241    Y=              2.9223    Z=              1.8311  Tot=              3.7311
 Quadrupole moment (field-independent basis, Debye-Ang):
   XX=           -112.0969   YY=           -212.3686   ZZ=           -161.3859
   XY=             19.8129   XZ=            -18.0764   YZ=            -19.0245
 Traceless Quadrupole moment (field-independent basis, Debye-Ang):
   XX=             49.8536   YY=            -50.4181   ZZ=              0.5646
   XY=             19.8129   XZ=            -18.0764   YZ=            -19.0245
 Octapole moment (field-independent basis, Debye-Ang**2):
  XXX=          -4544.6584  YYY=           4701.4247  ZZZ=             35.4066  XYY=          -2365.7092
  XXY=           1236.5766  XXZ=           -703.8578  XZZ=          -1930.8166  YZZ=           1281.5580
  YYZ=            200.9212  XYZ=            145.1580
 Hexadecapole moment (field-independent basis, Debye-Ang**3):
 XXXX=        -121182.8373 YYYY=         -79625.4875 ZZZZ=          -8343.4894 XXXY=          40023.9277
 XXXZ=         -10995.5820 YYYX=          54152.3136 YYYZ=          -2089.3232 ZZZX=           3987.6955
 ZZZY=           -339.8511 XXYY=         -38011.5165 XXZZ=         -25122.1305 YYZZ=         -12350.9130
 XXYZ=           6280.3582 YYXZ=            216.8028 ZZXY=          15369.0232
 N-N= 2.846666860252D+03 E-N=-8.894107906504D+03  KE= 1.365559114202D+03

 **********************************************************************

            Population analysis using the CI Density.

 **********************************************************************

          Condensed to atoms (all electrons):
 Mulliken charges:
               1
     1  N   -0.181999
     2  C    0.112143
     3  C   -0.007313
     4  C   -0.110924
     5  C    0.153126
     6  C   -0.008293
     7  C    0.003774
     8  C   -0.009318
     9  C    0.002646
    10  C   -0.013977
    11  C   -0.085108
    12  C    0.047354
    13  C    0.145418
    14  C   -0.102293
    15  C   -0.009350
    16  C    0.112355
    17  N   -0.177730
    18  F   -0.237880
    19  B    0.173287
    20  F   -0.230148
    21  H    0.063073
    22  H    0.020830
    23  H    0.011807
    24  H    0.020855
    25  H    0.019351
    26  H    0.020722
    27  H    0.014275
    28  H    0.020768
    29  H    0.062683
    30  C    0.010091
    31  C   -0.027461
    32  C   -0.028950
    33  C    0.014231
    34  C    0.012129
    35  C    0.006435
    36  H    0.016017
    37  H    0.015121
    38  H    0.021766
    39  H    0.022214
    40  H    0.022723
    41  C    0.011115
    42  C   -0.027586
    43  C   -0.029232
    44  C    0.014249
    45  C    0.012268
    46  C    0.006364
    47  H    0.016223
    48  H    0.015290
    49  H    0.021878
    50  H    0.022202
    51  H    0.022779
 Sum of Mulliken charges =  -0.00000
 Mulliken charges with hydrogens summed into heavy atoms:
               1
     1  N   -0.181999
     2  C    0.175216
     3  C   -0.007313
     4  C   -0.090094
     5  C    0.153126
     6  C    0.003514
     7  C    0.024629
     8  C    0.010033
     9  C    0.023368
    10  C    0.000298
    11  C   -0.085108
    12  C    0.047354
    13  C    0.145418
    14  C   -0.081525
    15  C   -0.009350
    16  C    0.175038
    17  N   -0.177730
    18  F   -0.237880
    19  B    0.173287
    20  F   -0.230148
    30  C    0.010091
    31  C   -0.011444
    32  C   -0.013829
    33  C    0.035996
    34  C    0.034343
    35  C    0.029158
    41  C    0.011115
    42  C   -0.011363
    43  C   -0.013942
    44  C    0.036127
    45  C    0.034469
    46  C    0.029143
 Electronic spatial extent (au):  <R**2>=         179618.7979
 Charge=             -0.0000 electrons
 Dipole moment (field-independent basis, Debye):
    X=              1.3766    Y=              4.0347    Z=              1.7440  Tot=              4.6060
 Quadrupole moment (field-independent basis, Debye-Ang):
   XX=           -117.1306   YY=           -231.7880   ZZ=           -164.1507
   XY=             33.2890   XZ=            -16.1567   YZ=            -18.3900
 Traceless Quadrupole moment (field-independent basis, Debye-Ang):
   XX=             53.8925   YY=            -60.7649   ZZ=              6.8724
   XY=             33.2890   XZ=            -16.1567   YZ=            -18.3900
 Octapole moment (field-independent basis, Debye-Ang**2):
  XXX=          -4703.3274  YYY=           4938.1253  ZZZ=             36.0641  XYY=          -2596.8007
  XXY=           1433.8234  XXZ=           -645.7723  XZZ=          -1963.9690  YZZ=           1307.7268
  YYZ=            196.2157  XYZ=            124.2050
 Hexadecapole moment (field-independent basis, Debye-Ang**3):
 XXXX=        -124762.6872 YYYY=         -82100.9349 ZZZZ=          -8322.1856 XXXY=          43206.6123
 XXXZ=          -9897.5704 YYYX=          56950.2835 YYYZ=          -2056.8233 ZZZX=           3981.7566
 ZZZY=           -347.9657 XXYY=         -41052.3166 XXZZ=         -25509.5900 YYZZ=         -12582.1351
 XXYZ=           5692.1374 YYXZ=            412.5822 ZZXY=          15683.2447
 N-N= 2.846666860252D+03 E-N=-8.893852131496D+03  KE= 1.365568127188D+03
 No NMR shielding tensors so no spin-rotation constants.
 Leave Link  601 at Tue Feb  1 17:37:31 2022, MaxMem= 49660559360 cpu:              16.5 elap:               0.6
 (Enter /lustre1/prg/gaussian/bin/G16_C01_Linda_AVX2/g16/l9999.exe)
 Electronic transition elements 
                 1             2             3             4             5 
      1  -0.137409D+04 -0.137405D+04 -0.137404D+04 -0.137403D+04 -0.137401D+04
      2   0.288298D+01 -0.117302D+00  0.138466D+01 -0.234850D-01 -0.208499D+00
      3   0.385393D-01  0.159609D+01  0.331559D-01  0.165197D+01  0.461769D-01
      4  -0.264032D+01  0.790926D-02 -0.127744D+01 -0.467988D-01 -0.190698D+00
      5  -0.244851D+00  0.130987D-01 -0.188162D+00  0.364108D-02  0.381528D-01
      6  -0.329725D-02 -0.189848D+00 -0.444480D-02 -0.234498D+00 -0.712694D-02
      7   0.223220D+00 -0.249322D-02  0.172928D+00  0.695998D-02  0.296020D-01
      8  -0.295913D+01  0.397558D-02 -0.281894D+01 -0.199721D+00 -0.366479D+00
      9  -0.491887D+01  0.268728D-01 -0.370760D+01 -0.203745D+00 -0.637055D+00
     10  -0.332001D+01 -0.402933D+01 -0.314353D+01 -0.508186D+01 -0.156386D+00
     11  -0.111030D+02  0.184074D+01 -0.842758D+01  0.788623D+00  0.166608D+01
     12   0.118886D+00  0.523174D+01  0.157714D+00  0.552298D+01  0.144445D+00
     13   0.103843D+00  0.112782D+01  0.473107D-01  0.638213D+00  0.853290D-02
     14   0.413480D+01 -0.440142D+01  0.297000D+01 -0.525928D+01 -0.348219D+00
     15   0.500785D+01 -0.127327D+01  0.384832D+01 -0.536270D+00  0.659394D+00
     16  -0.382605D+01  0.360367D-01 -0.281395D+01 -0.153585D+00 -0.428601D+00
                 6 
      1  -0.137400D+04
      2   0.665806D-01
      3   0.225193D+00
      4  -0.898408D-01
      5  -0.135704D-01
      6  -0.398401D-01
      7   0.156659D-01
      8  -0.361517D+00
      9  -0.354667D+00
     10  -0.128664D+01
     11  -0.558109D+00
     12   0.143615D+01
     13   0.355049D-01
     14  -0.799919D+00
     15   0.304392D+00
     16  -0.153998D+00
 Unable to Open any file for archive entry.
 1\1\VILNIUS-FIZIKA341\FOpt\RM062X TD-FC\CC-pVDZ\C27H19B1F2N2\TOLISTE\0
 1-Feb-2022\0\\#p m062x cc-pvdz scrf=(cpcm,solvent=TetraHydroFuran) td=
 (nstate=6,root=1) opt=tight nosymm density=all int=ultrafine fchk\\BDP
 -PP-phenyl, optimized S1 in toluene\\0,1\N,12.6391095332,-9.4561917449
 ,-0.9746223176\C,13.6481068302,-9.8761220624,-1.733858439\C,14.3791977
 858,-8.7597334715,-2.2347848058\C,13.7369166876,-7.612620511,-1.724283
 1067\C,12.6673352013,-8.0448045879,-0.922848772\C,10.5192423605,-5.150
 5586181,-0.1645744438\C,10.5043806567,-3.7595176689,-0.1093281684\C,11
 .6951945588,-3.0489289973,0.050694334\C,12.901501071,-3.7420996401,0.1
 592784143\C,12.9205911428,-5.13357614,0.1028596297\C,11.7291144285,-5.
 8607007508,-0.0648429415\C,11.7317937941,-7.3316334213,-0.1237168948\C
 ,10.8348623109,-8.0794705856,0.6891852532\C,9.9774148385,-7.6772124649
 ,1.7258177862\C,9.4144987516,-8.8409533004,2.2891149297\C,9.9578278759
 ,-9.936274937,1.5549859203\N,10.7831236493,-9.4871431259,0.6129554348\
 F,11.9889850151,-11.5210986004,0.1074077257\B,11.4897681476,-10.349116
 7509,-0.4547658553\F,10.60847139,-10.65651354,-1.4972157814\H,13.78998
 47795,-10.9382630021,-1.9196579052\H,14.0127715862,-6.5777826591,-1.89
 43097889\H,9.5877042124,-5.7005204353,-0.3083232119\H,9.5569430779,-3.
 2268974388,-0.199579771\H,11.6826592751,-1.9594442642,0.0934822225\H,1
 3.8354002971,-3.1964524379,0.2991129423\H,13.8641306196,-5.6678171474,
 0.2212927238\H,9.8380737515,-6.6521996697,2.0535009464\H,9.774515124,-
 11.0028120631,1.6622250137\C,15.5386464271,-8.8291689023,-3.1098430857
 \C,16.0910399194,-7.6556476136,-3.6610617888\C,16.1392272778,-10.06475
 05159,-3.4267166703\C,17.199580648,-7.7171783195,-4.4966872695\C,17.24
 77026108,-10.1216750413,-4.2624763224\C,17.7838479607,-8.9493263834,-4
 .8019639498\H,15.6399989063,-6.6888113193,-3.4364976633\H,15.739989545
 1,-10.9885584031,-3.0072298531\H,17.6116993313,-6.7986567062,-4.915448
 4112\H,17.6995961418,-11.0865179406,-4.4939552601\H,18.6538761407,-8.9
 958464107,-5.4575392356\C,8.4741199481,-8.944623347,3.3933790331\C,7.9
 039526727,-7.786663148,3.9592434329\C,8.1114434752,-10.1987070202,3.92
 59276529\C,7.0068094623,-7.8809887903,5.0161972677\C,7.213905307,-10.2
 884007696,4.9826046461\C,6.6569447151,-9.1310780105,5.5335105332\H,8.1
 623126783,-6.806235174,3.5582730968\H,8.543471909,-11.1111223217,3.514
 0143046\H,6.5741315367,-6.9742402647,5.4398595739\H,6.9472290698,-11.2
 671095486,5.3822308564\H,5.952534564,-9.2033400126,6.3626360386\\Versi
 on=ES64L-G16RevC.01\HF=-1374.1695475\RMSD=2.446e-09\RMSF=1.038e-06\Dip
 ole=0.5416004,1.587361,0.6861545\Quadrupole=40.0677613,-45.1772175,5.1
 094562,24.7495243,-12.0121135,-13.6724776\PG=C01 [X(C27H19B1F2N2)]\\@
 The archive entry for this job was punched.


 IT IS BY EATING THE LIGHT OF A STAR THAT WE EXIST, 
 IN THE FINAL ANALYSIS, 
 JUST AS IT IS BY PERCEIVING THE LIGHT OF STARS
 THAT WE DEFINE THE WORLD AROUND US.

                                    -- GILBERT GROSVENOR
 Job cpu time:       0 days  0 hours 17 minutes 20.9 seconds.
 Elapsed time:       0 days  5 hours 19 minutes 15.1 seconds.
 File lengths (MBytes):  RWF=   1885 Int=      0 D2E=      0 Chk=     92 Scr=      1
 Normal termination of Gaussian 16 at Tue Feb  1 17:37:33 2022.
