 Entering Gaussian System, Link 0=g09
 Initial command:
 /scratch/prg/gaussian/bin/g09/l1.exe "/scratch/home/stetol/gaussian/bodipy/v3/7-ppp/ppp-tolu-optR1/Gau-30346.inp" -scrdir="/scratch/home/stetol/gaussian/bodipy/v3/7-ppp/ppp-tolu-optR1/"
 Default is to use a total of  12 processors:
                               12 via shared-memory
                                1 via Linda
 Entering Link 1 = /scratch/prg/gaussian/bin/g09/l1.exe PID=     30347.
  
 Copyright (c) 1988,1990,1992,1993,1995,1998,2003,2009,2013,
            Gaussian, Inc.  All Rights Reserved.
  
 This is part of the Gaussian(R) 09 program.  It is based on
 the Gaussian(R) 03 system (copyright 2003, Gaussian, Inc.),
 the Gaussian(R) 98 system (copyright 1998, Gaussian, Inc.),
 the Gaussian(R) 94 system (copyright 1995, Gaussian, Inc.),
 the Gaussian 92(TM) system (copyright 1992, Gaussian, Inc.),
 the Gaussian 90(TM) system (copyright 1990, Gaussian, Inc.),
 the Gaussian 88(TM) system (copyright 1988, Gaussian, Inc.),
 the Gaussian 86(TM) system (copyright 1986, Carnegie Mellon
 University), and the Gaussian 82(TM) system (copyright 1983,
 Carnegie Mellon University). Gaussian is a federally registered
 trademark of Gaussian, Inc.
  
 This software contains proprietary and confidential information,
 including trade secrets, belonging to Gaussian, Inc.
  
 This software is provided under written license and may be
 used, copied, transmitted, or stored only in accord with that
 written license.
  
 The following legend is applicable only to US Government
 contracts under FAR:
  
                    RESTRICTED RIGHTS LEGEND
  
 Use, reproduction and disclosure by the US Government is
 subject to restrictions as set forth in subparagraphs (a)
 and (c) of the Commercial Computer Software - Restricted
 Rights clause in FAR 52.227-19.
  
 Gaussian, Inc.
 340 Quinnipiac St., Bldg. 40, Wallingford CT 06492
  
  
 ---------------------------------------------------------------
 Warning -- This program may not be used in any manner that
 competes with the business of Gaussian, Inc. or will provide
 assistance to any competitor of Gaussian, Inc.  The licensee
 of this program is prohibited from giving any competitor of
 Gaussian, Inc. access to this program.  By using this program,
 the user acknowledges that Gaussian, Inc. is engaged in the
 business of creating and licensing software in the field of
 computational chemistry and represents and warrants to the
 licensee that it is not a competitor of Gaussian, Inc. and that
 it will not use this program in any manner prohibited above.
 ---------------------------------------------------------------
  

 Cite this work as:
 Gaussian 09, Revision D.01,
 M. J. Frisch, G. W. Trucks, H. B. Schlegel, G. E. Scuseria, 
 M. A. Robb, J. R. Cheeseman, G. Scalmani, V. Barone, B. Mennucci, 
 G. A. Petersson, H. Nakatsuji, M. Caricato, X. Li, H. P. Hratchian, 
 A. F. Izmaylov, J. Bloino, G. Zheng, J. L. Sonnenberg, M. Hada, 
 M. Ehara, K. Toyota, R. Fukuda, J. Hasegawa, M. Ishida, T. Nakajima, 
 Y. Honda, O. Kitao, H. Nakai, T. Vreven, J. A. Montgomery, Jr., 
 J. E. Peralta, F. Ogliaro, M. Bearpark, J. J. Heyd, E. Brothers, 
 K. N. Kudin, V. N. Staroverov, T. Keith, R. Kobayashi, J. Normand, 
 K. Raghavachari, A. Rendell, J. C. Burant, S. S. Iyengar, J. Tomasi, 
 M. Cossi, N. Rega, J. M. Millam, M. Klene, J. E. Knox, J. B. Cross, 
 V. Bakken, C. Adamo, J. Jaramillo, R. Gomperts, R. E. Stratmann, 
 O. Yazyev, A. J. Austin, R. Cammi, C. Pomelli, J. W. Ochterski, 
 R. L. Martin, K. Morokuma, V. G. Zakrzewski, G. A. Voth, 
 P. Salvador, J. J. Dannenberg, S. Dapprich, A. D. Daniels, 
 O. Farkas, J. B. Foresman, J. V. Ortiz, J. Cioslowski, 
 and D. J. Fox, Gaussian, Inc., Wallingford CT, 2013.
 
 ******************************************
 Gaussian 09:  EM64L-G09RevD.01 24-Apr-2013
                21-Apr-2020 
 ******************************************
 %LindaWorkers=fizika32-ib.bullx,fizika35-ib.bullx
 %chk=bodipy.chk
 SetLPE:  input flags=""
 SetLPE:    new flags=" -nodelist 'fizika32-ib.bullx fizika35-ib.bullx'"
 Will use up to    2 processors via Linda.
 Default route:  MaxDisk=50000GB
 ----------------------------------------------------------------------
 #p m062x cc-pvdz scrf=(cpcm,solvent=Toluene) td=(nstate=6,root=1) opt=
 tight nosymm density=all int=ultrafine fchk
 ----------------------------------------------------------------------
 1/7=10,14=-1,18=20,19=15,26=4,38=1/1,3;
 2/9=110,12=2,15=1,17=6,18=5,40=1/2;
 3/5=16,11=9,16=1,25=1,30=1,70=2101,71=1,72=13,74=-55,75=-5/1,2,8,3;
 4//1;
 5/5=2,38=5,53=13/2;
 8/6=1,10=1,107=1,108=6/1;
 9/8=1,15=2,30=10,41=6,42=1,70=2/14;
 10/5=4,31=1/2;
 6/7=2,8=2,9=2,10=2,22=-2/1;
 7/12=6,13=5,14=1,30=1/1,2,3,16;
 1/7=10,14=-1,18=20,19=15,26=4/3(2);
 2/9=110,15=1/2;
 99//99;
 2/9=110,15=1/2;
 3/5=16,11=9,16=1,25=1,30=1,70=2105,71=1,72=13,74=-55,75=-5/1,2,8,3;
 4/5=5,16=3,69=1/1;
 5/5=2,38=5,53=13/2;
 8/6=1,10=1,107=1,108=6/1;
 9/8=1,15=2,30=10,41=6,42=1,49=4,70=2/14;
 10/5=4,31=1/2;
 7/12=6,13=5,14=1,30=1/1,2,3,16;
 1/7=10,14=-1,18=20,19=15,26=4/3(-8);
 2/9=110,15=1/2;
 6/7=2,8=2,9=2,10=2,22=-2/1;
 99//99;
 Leave Link    1 at Tue Apr 21 13:06:32 2020, MaxMem=           0 cpu:         1.6
 (Enter /scratch/prg/gaussian/bin/g09/l101.exe)
 --------------------------------------
 BODIPY-phenyl with phenyls, initial R1
 --------------------------------------
 Symbolic Z-matrix:
 Charge =  0 Multiplicity = 1
 N                     12.96392  -9.33195  -0.59782 
 C                     14.11406  -9.91515  -0.26457 
 C                     14.9219  -9.00844   0.47513 
 C                     14.17702  -7.83101   0.59431 
 C                     12.95926  -8.02021  -0.09555 
 C                     10.52648  -5.07926  -0.52313 
 C                     10.50407  -3.69686  -0.64392 
 C                     11.69051  -2.96014  -0.60184 
 C                     12.90609  -3.63464  -0.46607 
 C                     12.93887  -5.01736  -0.34483 
 C                     11.74534  -5.77939  -0.34573 
 C                     11.76099  -7.21613  -0.21241 
 C                     10.57244  -8.01779  -0.0603 
 C                     9.36588  -7.80536   0.64464 
 C                     8.61767  -8.98302   0.57095 
 C                     9.40726  -9.90944  -0.16483 
 N                     10.55326  -9.33886  -0.53325 
 F                     11.7485  -11.33407  -1.18572 
 B                     11.73959  -9.9542   -1.32069 
 F                     11.70143  -9.55708  -2.65208 
 H                     14.32012  -10.94344  -0.55438 
 H                     14.45924  -6.94538   1.15552 
 H                     9.59342  -5.63505  -0.6009 
 H                     9.54998  -3.18787  -0.78538 
 H                     11.66943  -1.87425  -0.69528 
 H                     13.84278  -3.07612  -0.46342 
 H                     13.90193  -5.51898  -0.27975 
 H                     9.09926  -6.89856   1.1803 
 H                     9.18784  -10.94068  -0.43395 
 C                     16.33325  -9.27044   1.03283 
 C                     16.55253  -9.39336   2.41527 
 C                     17.43829  -9.39336   0.17369 
 C                     17.82983  -9.6305    2.92034 
 C                     18.71583  -9.6305    0.67816 
 C                     18.9177  -9.75021   2.05407 
 H                     15.71338  -9.30193   3.09787 
 H                     17.2924  -9.30193  -0.89814 
 H                     17.97528  -9.72191   3.99295 
 H                     19.55519  -9.72191  -0.00531 
 H                     19.91298  -9.93497   2.44735 
 C                     7.21899  -9.22868   1.16673 
 C                     6.09052  -9.34393   0.33752 
 C                     7.03505  -9.34393   2.55497 
 C                     4.82445  -9.56627   0.87645 
 C                     5.76924  -9.56627   3.0945 
 C                     4.65777  -9.67851   2.2577 
 H                     6.20898  -9.2582   -0.73816 
 H                     7.89278  -9.2582    3.21484 
 H                     3.96649  -9.65197   0.21572 
 H                     5.65124  -9.65197   4.17095 
 H                     3.67142  -9.85174   2.67783 
 
 NAtoms=     51 NQM=       51 NQMF=       0 NMMI=      0 NMMIF=      0
                NMic=       0 NMicF=      0.
                    Isotopes and Nuclear Properties:
 (Nuclear quadrupole moments (NQMom) in fm**2, nuclear magnetic moments (NMagM)
  in nuclear magnetons)

  Atom         1           2           3           4           5           6           7           8           9          10
 IAtWgt=          14          12          12          12          12          12          12          12          12          12
 AtmWgt=  14.0030740  12.0000000  12.0000000  12.0000000  12.0000000  12.0000000  12.0000000  12.0000000  12.0000000  12.0000000
 NucSpn=           2           0           0           0           0           0           0           0           0           0
 AtZEff=   0.0000000   0.0000000   0.0000000   0.0000000   0.0000000   0.0000000   0.0000000   0.0000000   0.0000000   0.0000000
 NQMom=    2.0440000   0.0000000   0.0000000   0.0000000   0.0000000   0.0000000   0.0000000   0.0000000   0.0000000   0.0000000
 NMagM=    0.4037610   0.0000000   0.0000000   0.0000000   0.0000000   0.0000000   0.0000000   0.0000000   0.0000000   0.0000000
 AtZNuc=   7.0000000   6.0000000   6.0000000   6.0000000   6.0000000   6.0000000   6.0000000   6.0000000   6.0000000   6.0000000

  Atom        11          12          13          14          15          16          17          18          19          20
 IAtWgt=          12          12          12          12          12          12          14          19          11          19
 AtmWgt=  12.0000000  12.0000000  12.0000000  12.0000000  12.0000000  12.0000000  14.0030740  18.9984033  11.0093053  18.9984033
 NucSpn=           0           0           0           0           0           0           2           1           3           1
 AtZEff=   0.0000000   0.0000000   0.0000000   0.0000000   0.0000000   0.0000000   0.0000000   0.0000000   0.0000000   0.0000000
 NQMom=    0.0000000   0.0000000   0.0000000   0.0000000   0.0000000   0.0000000   2.0440000   0.0000000   4.0590000   0.0000000
 NMagM=    0.0000000   0.0000000   0.0000000   0.0000000   0.0000000   0.0000000   0.4037610   2.6288670   2.6886370   2.6288670
 AtZNuc=   6.0000000   6.0000000   6.0000000   6.0000000   6.0000000   6.0000000   7.0000000   9.0000000   5.0000000   9.0000000

  Atom        21          22          23          24          25          26          27          28          29          30
 IAtWgt=           1           1           1           1           1           1           1           1           1          12
 AtmWgt=   1.0078250   1.0078250   1.0078250   1.0078250   1.0078250   1.0078250   1.0078250   1.0078250   1.0078250  12.0000000
 NucSpn=           1           1           1           1           1           1           1           1           1           0
 AtZEff=   0.0000000   0.0000000   0.0000000   0.0000000   0.0000000   0.0000000   0.0000000   0.0000000   0.0000000   0.0000000
 NQMom=    0.0000000   0.0000000   0.0000000   0.0000000   0.0000000   0.0000000   0.0000000   0.0000000   0.0000000   0.0000000
 NMagM=    2.7928460   2.7928460   2.7928460   2.7928460   2.7928460   2.7928460   2.7928460   2.7928460   2.7928460   0.0000000
 AtZNuc=   1.0000000   1.0000000   1.0000000   1.0000000   1.0000000   1.0000000   1.0000000   1.0000000   1.0000000   6.0000000

  Atom        31          32          33          34          35          36          37          38          39          40
 IAtWgt=          12          12          12          12          12           1           1           1           1           1
 AtmWgt=  12.0000000  12.0000000  12.0000000  12.0000000  12.0000000   1.0078250   1.0078250   1.0078250   1.0078250   1.0078250
 NucSpn=           0           0           0           0           0           1           1           1           1           1
 AtZEff=   0.0000000   0.0000000   0.0000000   0.0000000   0.0000000   0.0000000   0.0000000   0.0000000   0.0000000   0.0000000
 NQMom=    0.0000000   0.0000000   0.0000000   0.0000000   0.0000000   0.0000000   0.0000000   0.0000000   0.0000000   0.0000000
 NMagM=    0.0000000   0.0000000   0.0000000   0.0000000   0.0000000   2.7928460   2.7928460   2.7928460   2.7928460   2.7928460
 AtZNuc=   6.0000000   6.0000000   6.0000000   6.0000000   6.0000000   1.0000000   1.0000000   1.0000000   1.0000000   1.0000000

  Atom        41          42          43          44          45          46          47          48          49          50
 IAtWgt=          12          12          12          12          12          12           1           1           1           1
 AtmWgt=  12.0000000  12.0000000  12.0000000  12.0000000  12.0000000  12.0000000   1.0078250   1.0078250   1.0078250   1.0078250
 NucSpn=           0           0           0           0           0           0           1           1           1           1
 AtZEff=   0.0000000   0.0000000   0.0000000   0.0000000   0.0000000   0.0000000   0.0000000   0.0000000   0.0000000   0.0000000
 NQMom=    0.0000000   0.0000000   0.0000000   0.0000000   0.0000000   0.0000000   0.0000000   0.0000000   0.0000000   0.0000000
 NMagM=    0.0000000   0.0000000   0.0000000   0.0000000   0.0000000   0.0000000   2.7928460   2.7928460   2.7928460   2.7928460
 AtZNuc=   6.0000000   6.0000000   6.0000000   6.0000000   6.0000000   6.0000000   1.0000000   1.0000000   1.0000000   1.0000000

  Atom        51
 IAtWgt=           1
 AtmWgt=   1.0078250
 NucSpn=           1
 AtZEff=   0.0000000
 NQMom=    0.0000000
 NMagM=    2.7928460
 AtZNuc=   1.0000000
 Leave Link  101 at Tue Apr 21 13:06:33 2020, MaxMem= 12079595520 cpu:         6.3
 (Enter /scratch/prg/gaussian/bin/g09/l103.exe)

 GradGradGradGradGradGradGradGradGradGradGradGradGradGradGradGradGradGrad
 Berny optimization.
 Initialization pass.
                           ----------------------------
                           !    Initial Parameters    !
                           ! (Angstroms and Degrees)  !
 --------------------------                            --------------------------
 ! Name  Definition              Value          Derivative Info.                !
 --------------------------------------------------------------------------------
 ! R1    R(1,2)                  1.3319         estimate D2E/DX2                !
 ! R2    R(1,5)                  1.4046         estimate D2E/DX2                !
 ! R3    R(1,19)                 1.552          estimate D2E/DX2                !
 ! R4    R(2,3)                  1.4219         estimate D2E/DX2                !
 ! R5    R(2,21)                 1.088          estimate D2E/DX2                !
 ! R6    R(3,4)                  1.3984         estimate D2E/DX2                !
 ! R7    R(3,30)                 1.54           estimate D2E/DX2                !
 ! R8    R(4,5)                  1.4123         estimate D2E/DX2                !
 ! R9    R(4,22)                 1.0858         estimate D2E/DX2                !
 ! R10   R(5,12)                 1.4478         estimate D2E/DX2                !
 ! R11   R(6,7)                  1.3878         estimate D2E/DX2                !
 ! R12   R(6,11)                 1.4168         estimate D2E/DX2                !
 ! R13   R(6,23)                 1.0888         estimate D2E/DX2                !
 ! R14   R(7,8)                  1.3972         estimate D2E/DX2                !
 ! R15   R(7,24)                 1.0906         estimate D2E/DX2                !
 ! R16   R(8,9)                  1.3968         estimate D2E/DX2                !
 ! R17   R(8,25)                 1.0901         estimate D2E/DX2                !
 ! R18   R(9,10)                 1.3884         estimate D2E/DX2                !
 ! R19   R(9,26)                 1.0906         estimate D2E/DX2                !
 ! R20   R(10,11)                1.4161         estimate D2E/DX2                !
 ! R21   R(10,27)                1.0878         estimate D2E/DX2                !
 ! R22   R(11,12)                1.443          estimate D2E/DX2                !
 ! R23   R(12,13)                1.4417         estimate D2E/DX2                !
 ! R24   R(13,14)                1.4135         estimate D2E/DX2                !
 ! R25   R(13,17)                1.4033         estimate D2E/DX2                !
 ! R26   R(14,15)                1.3972         estimate D2E/DX2                !
 ! R27   R(14,28)                1.0864         estimate D2E/DX2                !
 ! R28   R(15,16)                1.4223         estimate D2E/DX2                !
 ! R29   R(15,41)                1.54           estimate D2E/DX2                !
 ! R30   R(16,17)                1.3322         estimate D2E/DX2                !
 ! R31   R(16,29)                1.0881         estimate D2E/DX2                !
 ! R32   R(17,19)                1.5511         estimate D2E/DX2                !
 ! R33   R(18,19)                1.3865         estimate D2E/DX2                !
 ! R34   R(19,20)                1.3899         estimate D2E/DX2                !
 ! R35   R(30,31)                1.4051         estimate D2E/DX2                !
 ! R36   R(30,32)                1.4051         estimate D2E/DX2                !
 ! R37   R(31,33)                1.3939         estimate D2E/DX2                !
 ! R38   R(31,36)                1.0856         estimate D2E/DX2                !
 ! R39   R(32,34)                1.3939         estimate D2E/DX2                !
 ! R40   R(32,37)                1.0856         estimate D2E/DX2                !
 ! R41   R(33,35)                1.3958         estimate D2E/DX2                !
 ! R42   R(33,38)                1.0863         estimate D2E/DX2                !
 ! R43   R(34,35)                1.3958         estimate D2E/DX2                !
 ! R44   R(34,39)                1.0863         estimate D2E/DX2                !
 ! R45   R(35,40)                1.086          estimate D2E/DX2                !
 ! R46   R(41,42)                1.4051         estimate D2E/DX2                !
 ! R47   R(41,43)                1.4051         estimate D2E/DX2                !
 ! R48   R(42,44)                1.3939         estimate D2E/DX2                !
 ! R49   R(42,47)                1.0856         estimate D2E/DX2                !
 ! R50   R(43,45)                1.3939         estimate D2E/DX2                !
 ! R51   R(43,48)                1.0856         estimate D2E/DX2                !
 ! R52   R(44,46)                1.3958         estimate D2E/DX2                !
 ! R53   R(44,49)                1.0863         estimate D2E/DX2                !
 ! R54   R(45,46)                1.3958         estimate D2E/DX2                !
 ! R55   R(45,50)                1.0863         estimate D2E/DX2                !
 ! R56   R(46,51)                1.086          estimate D2E/DX2                !
 ! A1    A(2,1,5)              108.8032         estimate D2E/DX2                !
 ! A2    A(2,1,19)             128.4758         estimate D2E/DX2                !
 ! A3    A(5,1,19)             122.5714         estimate D2E/DX2                !
 ! A4    A(1,2,3)              109.9703         estimate D2E/DX2                !
 ! A5    A(1,2,21)             120.712          estimate D2E/DX2                !
 ! A6    A(3,2,21)             129.3169         estimate D2E/DX2                !
 ! A7    A(2,3,4)              106.1781         estimate D2E/DX2                !
 ! A8    A(2,3,30)             126.911          estimate D2E/DX2                !
 ! A9    A(4,3,30)             126.911          estimate D2E/DX2                !
 ! A10   A(3,4,5)              107.7505         estimate D2E/DX2                !
 ! A11   A(3,4,22)             126.3263         estimate D2E/DX2                !
 ! A12   A(5,4,22)             125.8633         estimate D2E/DX2                !
 ! A13   A(1,5,4)              107.2718         estimate D2E/DX2                !
 ! A14   A(1,5,12)             119.5086         estimate D2E/DX2                !
 ! A15   A(4,5,12)             132.7397         estimate D2E/DX2                !
 ! A16   A(7,6,11)             121.1325         estimate D2E/DX2                !
 ! A17   A(7,6,23)             119.235          estimate D2E/DX2                !
 ! A18   A(11,6,23)            119.5984         estimate D2E/DX2                !
 ! A19   A(6,7,8)              120.5891         estimate D2E/DX2                !
 ! A20   A(6,7,24)             119.3598         estimate D2E/DX2                !
 ! A21   A(8,7,24)             120.0466         estimate D2E/DX2                !
 ! A22   A(7,8,9)              119.1636         estimate D2E/DX2                !
 ! A23   A(7,8,25)             120.4132         estimate D2E/DX2                !
 ! A24   A(9,8,25)             120.4104         estimate D2E/DX2                !
 ! A25   A(8,9,10)             120.6606         estimate D2E/DX2                !
 ! A26   A(8,9,26)             120.0268         estimate D2E/DX2                !
 ! A27   A(10,9,26)            119.3104         estimate D2E/DX2                !
 ! A28   A(9,10,11)            121.0623         estimate D2E/DX2                !
 ! A29   A(9,10,27)            119.0364         estimate D2E/DX2                !
 ! A30   A(11,10,27)           119.8734         estimate D2E/DX2                !
 ! A31   A(6,11,10)            117.3393         estimate D2E/DX2                !
 ! A32   A(6,11,12)            120.8588         estimate D2E/DX2                !
 ! A33   A(10,11,12)           121.7764         estimate D2E/DX2                !
 ! A34   A(5,12,11)            124.7092         estimate D2E/DX2                !
 ! A35   A(5,12,13)            111.4073         estimate D2E/DX2                !
 ! A36   A(11,12,13)           123.6735         estimate D2E/DX2                !
 ! A37   A(12,13,14)           132.2827         estimate D2E/DX2                !
 ! A38   A(12,13,17)           119.9457         estimate D2E/DX2                !
 ! A39   A(14,13,17)           107.3323         estimate D2E/DX2                !
 ! A40   A(13,14,15)           107.7062         estimate D2E/DX2                !
 ! A41   A(13,14,28)           125.5095         estimate D2E/DX2                !
 ! A42   A(15,14,28)           126.7349         estimate D2E/DX2                !
 ! A43   A(14,15,16)           106.2008         estimate D2E/DX2                !
 ! A44   A(14,15,41)           126.8996         estimate D2E/DX2                !
 ! A45   A(16,15,41)           126.8996         estimate D2E/DX2                !
 ! A46   A(15,16,17)           109.9773         estimate D2E/DX2                !
 ! A47   A(15,16,29)           129.2925         estimate D2E/DX2                !
 ! A48   A(17,16,29)           120.7299         estimate D2E/DX2                !
 ! A49   A(13,17,16)           108.7693         estimate D2E/DX2                !
 ! A50   A(13,17,19)           122.2822         estimate D2E/DX2                !
 ! A51   A(16,17,19)           128.9338         estimate D2E/DX2                !
 ! A52   A(1,19,17)            101.9955         estimate D2E/DX2                !
 ! A53   A(1,19,18)            110.4021         estimate D2E/DX2                !
 ! A54   A(1,19,20)            110.6875         estimate D2E/DX2                !
 ! A55   A(17,19,18)           110.5056         estimate D2E/DX2                !
 ! A56   A(17,19,20)           110.6065         estimate D2E/DX2                !
 ! A57   A(18,19,20)           112.1967         estimate D2E/DX2                !
 ! A58   A(3,30,31)            120.9441         estimate D2E/DX2                !
 ! A59   A(3,30,32)            120.9441         estimate D2E/DX2                !
 ! A60   A(31,30,32)           118.1119         estimate D2E/DX2                !
 ! A61   A(30,31,33)           120.9574         estimate D2E/DX2                !
 ! A62   A(30,31,36)           119.3831         estimate D2E/DX2                !
 ! A63   A(33,31,36)           119.6595         estimate D2E/DX2                !
 ! A64   A(30,32,34)           120.9574         estimate D2E/DX2                !
 ! A65   A(30,32,37)           119.3831         estimate D2E/DX2                !
 ! A66   A(34,32,37)           119.6595         estimate D2E/DX2                !
 ! A67   A(31,33,35)           120.2599         estimate D2E/DX2                !
 ! A68   A(31,33,38)           119.6574         estimate D2E/DX2                !
 ! A69   A(35,33,38)           120.0828         estimate D2E/DX2                !
 ! A70   A(32,34,35)           120.2599         estimate D2E/DX2                !
 ! A71   A(32,34,39)           119.6574         estimate D2E/DX2                !
 ! A72   A(35,34,39)           120.0828         estimate D2E/DX2                !
 ! A73   A(33,35,34)           119.4536         estimate D2E/DX2                !
 ! A74   A(33,35,40)           120.2732         estimate D2E/DX2                !
 ! A75   A(34,35,40)           120.2732         estimate D2E/DX2                !
 ! A76   A(15,41,42)           120.9441         estimate D2E/DX2                !
 ! A77   A(15,41,43)           120.9441         estimate D2E/DX2                !
 ! A78   A(42,41,43)           118.1119         estimate D2E/DX2                !
 ! A79   A(41,42,44)           120.9574         estimate D2E/DX2                !
 ! A80   A(41,42,47)           119.3831         estimate D2E/DX2                !
 ! A81   A(44,42,47)           119.6595         estimate D2E/DX2                !
 ! A82   A(41,43,45)           120.9574         estimate D2E/DX2                !
 ! A83   A(41,43,48)           119.3831         estimate D2E/DX2                !
 ! A84   A(45,43,48)           119.6595         estimate D2E/DX2                !
 ! A85   A(42,44,46)           120.2599         estimate D2E/DX2                !
 ! A86   A(42,44,49)           119.6574         estimate D2E/DX2                !
 ! A87   A(46,44,49)           120.0828         estimate D2E/DX2                !
 ! A88   A(43,45,46)           120.2599         estimate D2E/DX2                !
 ! A89   A(43,45,50)           119.6574         estimate D2E/DX2                !
 ! A90   A(46,45,50)           120.0828         estimate D2E/DX2                !
 ! A91   A(44,46,45)           119.4536         estimate D2E/DX2                !
 ! A92   A(44,46,51)           120.2732         estimate D2E/DX2                !
 ! A93   A(45,46,51)           120.2732         estimate D2E/DX2                !
 ! D1    D(5,1,2,3)             -0.0241         estimate D2E/DX2                !
 ! D2    D(5,1,2,21)           179.6984         estimate D2E/DX2                !
 ! D3    D(19,1,2,3)          -175.6096         estimate D2E/DX2                !
 ! D4    D(19,1,2,21)            4.1129         estimate D2E/DX2                !
 ! D5    D(2,1,5,4)             -0.9663         estimate D2E/DX2                !
 ! D6    D(2,1,5,12)          -174.004          estimate D2E/DX2                !
 ! D7    D(19,1,5,4)           174.9333         estimate D2E/DX2                !
 ! D8    D(19,1,5,12)            1.8956         estimate D2E/DX2                !
 ! D9    D(2,1,19,17)          138.9842         estimate D2E/DX2                !
 ! D10   D(2,1,19,18)           21.5252         estimate D2E/DX2                !
 ! D11   D(2,1,19,20)         -103.3161         estimate D2E/DX2                !
 ! D12   D(5,1,19,17)          -36.0557         estimate D2E/DX2                !
 ! D13   D(5,1,19,18)         -153.5147         estimate D2E/DX2                !
 ! D14   D(5,1,19,20)           81.644          estimate D2E/DX2                !
 ! D15   D(1,2,3,4)              1.0092         estimate D2E/DX2                !
 ! D16   D(1,2,3,30)          -178.9908         estimate D2E/DX2                !
 ! D17   D(21,2,3,4)          -178.6824         estimate D2E/DX2                !
 ! D18   D(21,2,3,30)            1.3176         estimate D2E/DX2                !
 ! D19   D(2,3,4,5)             -1.5755         estimate D2E/DX2                !
 ! D20   D(2,3,4,22)           175.7324         estimate D2E/DX2                !
 ! D21   D(30,3,4,5)           178.4245         estimate D2E/DX2                !
 ! D22   D(30,3,4,22)           -4.2676         estimate D2E/DX2                !
 ! D23   D(2,3,30,31)         -110.1184         estimate D2E/DX2                !
 ! D24   D(2,3,30,32)           69.8816         estimate D2E/DX2                !
 ! D25   D(4,3,30,31)           69.8816         estimate D2E/DX2                !
 ! D26   D(4,3,30,32)         -110.1184         estimate D2E/DX2                !
 ! D27   D(3,4,5,1)              1.5852         estimate D2E/DX2                !
 ! D28   D(3,4,5,12)           173.327          estimate D2E/DX2                !
 ! D29   D(22,4,5,1)          -175.7384         estimate D2E/DX2                !
 ! D30   D(22,4,5,12)           -3.9967         estimate D2E/DX2                !
 ! D31   D(1,5,12,11)         -149.4898         estimate D2E/DX2                !
 ! D32   D(1,5,12,13)           35.6243         estimate D2E/DX2                !
 ! D33   D(4,5,12,11)           39.578          estimate D2E/DX2                !
 ! D34   D(4,5,12,13)         -135.3079         estimate D2E/DX2                !
 ! D35   D(11,6,7,8)             0.4198         estimate D2E/DX2                !
 ! D36   D(11,6,7,24)          179.6446         estimate D2E/DX2                !
 ! D37   D(23,6,7,8)          -177.4465         estimate D2E/DX2                !
 ! D38   D(23,6,7,24)            1.7783         estimate D2E/DX2                !
 ! D39   D(7,6,11,10)           -2.1953         estimate D2E/DX2                !
 ! D40   D(7,6,11,12)          179.6093         estimate D2E/DX2                !
 ! D41   D(23,6,11,10)         175.6634         estimate D2E/DX2                !
 ! D42   D(23,6,11,12)          -2.532          estimate D2E/DX2                !
 ! D43   D(6,7,8,9)              1.4074         estimate D2E/DX2                !
 ! D44   D(6,7,8,25)          -179.8937         estimate D2E/DX2                !
 ! D45   D(24,7,8,9)          -177.8121         estimate D2E/DX2                !
 ! D46   D(24,7,8,25)            0.8868         estimate D2E/DX2                !
 ! D47   D(7,8,9,10)            -1.3907         estimate D2E/DX2                !
 ! D48   D(7,8,9,26)           178.0633         estimate D2E/DX2                !
 ! D49   D(25,8,9,10)          179.9104         estimate D2E/DX2                !
 ! D50   D(25,8,9,26)           -0.6356         estimate D2E/DX2                !
 ! D51   D(8,9,10,11)           -0.4546         estimate D2E/DX2                !
 ! D52   D(8,9,10,27)          177.6239         estimate D2E/DX2                !
 ! D53   D(26,9,10,11)        -179.9124         estimate D2E/DX2                !
 ! D54   D(26,9,10,27)          -1.8339         estimate D2E/DX2                !
 ! D55   D(9,10,11,6)            2.2114         estimate D2E/DX2                !
 ! D56   D(9,10,11,12)        -179.6109         estimate D2E/DX2                !
 ! D57   D(27,10,11,6)        -175.8511         estimate D2E/DX2                !
 ! D58   D(27,10,11,12)          2.3266         estimate D2E/DX2                !
 ! D59   D(6,11,12,5)          176.7437         estimate D2E/DX2                !
 ! D60   D(6,11,12,13)          -8.9795         estimate D2E/DX2                !
 ! D61   D(10,11,12,5)          -1.3706         estimate D2E/DX2                !
 ! D62   D(10,11,12,13)        172.9062         estimate D2E/DX2                !
 ! D63   D(5,12,13,14)         137.0512         estimate D2E/DX2                !
 ! D64   D(5,12,13,17)         -34.2876         estimate D2E/DX2                !
 ! D65   D(11,12,13,14)        -37.8973         estimate D2E/DX2                !
 ! D66   D(11,12,13,17)        150.764          estimate D2E/DX2                !
 ! D67   D(12,13,14,15)       -173.3122         estimate D2E/DX2                !
 ! D68   D(12,13,14,28)          4.2697         estimate D2E/DX2                !
 ! D69   D(17,13,14,15)         -1.1688         estimate D2E/DX2                !
 ! D70   D(17,13,14,28)        176.413          estimate D2E/DX2                !
 ! D71   D(12,13,17,16)        174.0182         estimate D2E/DX2                !
 ! D72   D(12,13,17,19)         -4.7013         estimate D2E/DX2                !
 ! D73   D(14,13,17,16)          0.7207         estimate D2E/DX2                !
 ! D74   D(14,13,17,19)       -177.9989         estimate D2E/DX2                !
 ! D75   D(13,14,15,16)          1.1526         estimate D2E/DX2                !
 ! D76   D(13,14,15,41)       -178.8474         estimate D2E/DX2                !
 ! D77   D(28,14,15,16)       -176.3912         estimate D2E/DX2                !
 ! D78   D(28,14,15,41)          3.6088         estimate D2E/DX2                !
 ! D79   D(14,15,16,17)         -0.7309         estimate D2E/DX2                !
 ! D80   D(14,15,16,29)        179.4372         estimate D2E/DX2                !
 ! D81   D(41,15,16,17)        179.2691         estimate D2E/DX2                !
 ! D82   D(41,15,16,29)         -0.5628         estimate D2E/DX2                !
 ! D83   D(14,15,41,42)        108.8505         estimate D2E/DX2                !
 ! D84   D(14,15,41,43)        -71.1495         estimate D2E/DX2                !
 ! D85   D(16,15,41,42)        -71.1495         estimate D2E/DX2                !
 ! D86   D(16,15,41,43)        108.8505         estimate D2E/DX2                !
 ! D87   D(15,16,17,13)          0.0038         estimate D2E/DX2                !
 ! D88   D(15,16,17,19)        178.6121         estimate D2E/DX2                !
 ! D89   D(29,16,17,13)        179.8525         estimate D2E/DX2                !
 ! D90   D(29,16,17,19)         -1.5392         estimate D2E/DX2                !
 ! D91   D(13,17,19,1)          37.4867         estimate D2E/DX2                !
 ! D92   D(13,17,19,18)        154.8713         estimate D2E/DX2                !
 ! D93   D(13,17,19,20)        -80.2711         estimate D2E/DX2                !
 ! D94   D(16,17,19,1)        -140.9547         estimate D2E/DX2                !
 ! D95   D(16,17,19,18)        -23.5701         estimate D2E/DX2                !
 ! D96   D(16,17,19,20)        101.2875         estimate D2E/DX2                !
 ! D97   D(3,30,31,33)         180.0            estimate D2E/DX2                !
 ! D98   D(3,30,31,36)           0.0            estimate D2E/DX2                !
 ! D99   D(32,30,31,33)          0.0            estimate D2E/DX2                !
 ! D100  D(32,30,31,36)        180.0            estimate D2E/DX2                !
 ! D101  D(3,30,32,34)        -180.0            estimate D2E/DX2                !
 ! D102  D(3,30,32,37)           0.0            estimate D2E/DX2                !
 ! D103  D(31,30,32,34)          0.0            estimate D2E/DX2                !
 ! D104  D(31,30,32,37)        180.0            estimate D2E/DX2                !
 ! D105  D(30,31,33,35)          0.0            estimate D2E/DX2                !
 ! D106  D(30,31,33,38)        180.0            estimate D2E/DX2                !
 ! D107  D(36,31,33,35)        180.0            estimate D2E/DX2                !
 ! D108  D(36,31,33,38)          0.0            estimate D2E/DX2                !
 ! D109  D(30,32,34,35)          0.0            estimate D2E/DX2                !
 ! D110  D(30,32,34,39)        180.0            estimate D2E/DX2                !
 ! D111  D(37,32,34,35)        180.0            estimate D2E/DX2                !
 ! D112  D(37,32,34,39)          0.0            estimate D2E/DX2                !
 ! D113  D(31,33,35,34)          0.0            estimate D2E/DX2                !
 ! D114  D(31,33,35,40)        180.0            estimate D2E/DX2                !
 ! D115  D(38,33,35,34)        180.0            estimate D2E/DX2                !
 ! D116  D(38,33,35,40)          0.0            estimate D2E/DX2                !
 ! D117  D(32,34,35,33)          0.0            estimate D2E/DX2                !
 ! D118  D(32,34,35,40)        180.0            estimate D2E/DX2                !
 ! D119  D(39,34,35,33)       -180.0            estimate D2E/DX2                !
 ! D120  D(39,34,35,40)          0.0            estimate D2E/DX2                !
 ! D121  D(15,41,42,44)        180.0            estimate D2E/DX2                !
 ! D122  D(15,41,42,47)          0.0            estimate D2E/DX2                !
 ! D123  D(43,41,42,44)          0.0            estimate D2E/DX2                !
 ! D124  D(43,41,42,47)       -180.0            estimate D2E/DX2                !
 ! D125  D(15,41,43,45)        180.0            estimate D2E/DX2                !
 ! D126  D(15,41,43,48)          0.0            estimate D2E/DX2                !
 ! D127  D(42,41,43,45)          0.0            estimate D2E/DX2                !
 ! D128  D(42,41,43,48)        180.0            estimate D2E/DX2                !
 ! D129  D(41,42,44,46)          0.0            estimate D2E/DX2                !
 ! D130  D(41,42,44,49)        180.0            estimate D2E/DX2                !
 ! D131  D(47,42,44,46)        180.0            estimate D2E/DX2                !
 ! D132  D(47,42,44,49)          0.0            estimate D2E/DX2                !
 ! D133  D(41,43,45,46)          0.0            estimate D2E/DX2                !
 ! D134  D(41,43,45,50)        180.0            estimate D2E/DX2                !
 ! D135  D(48,43,45,46)        180.0            estimate D2E/DX2                !
 ! D136  D(48,43,45,50)          0.0            estimate D2E/DX2                !
 ! D137  D(42,44,46,45)          0.0            estimate D2E/DX2                !
 ! D138  D(42,44,46,51)        180.0            estimate D2E/DX2                !
 ! D139  D(49,44,46,45)        180.0            estimate D2E/DX2                !
 ! D140  D(49,44,46,51)          0.0            estimate D2E/DX2                !
 ! D141  D(43,45,46,44)          0.0            estimate D2E/DX2                !
 ! D142  D(43,45,46,51)       -180.0            estimate D2E/DX2                !
 ! D143  D(50,45,46,44)        180.0            estimate D2E/DX2                !
 ! D144  D(50,45,46,51)          0.0            estimate D2E/DX2                !
 --------------------------------------------------------------------------------
 Trust Radius=3.00D-01 FncErr=1.00D-07 GrdErr=1.00D-06
 Number of steps in this run=    303 maximum allowed number of steps=    306.
 GradGradGradGradGradGradGradGradGradGradGradGradGradGradGradGradGradGrad

 Leave Link  103 at Tue Apr 21 13:06:33 2020, MaxMem= 12079595520 cpu:         0.4
 (Enter /scratch/prg/gaussian/bin/g09/l202.exe)
 Symmetry turned off by external request.
 Stoichiometry    C27H19BF2N2
 Framework group  C1[X(C27H19BF2N2)]
 Deg. of freedom   147
 Full point group                 C1      NOp   1
                          Input orientation:                          
 ---------------------------------------------------------------------
 Center     Atomic      Atomic             Coordinates (Angstroms)
 Number     Number       Type             X           Y           Z
 ---------------------------------------------------------------------
      1          7           0       12.963922   -9.331946   -0.597815
      2          6           0       14.114058   -9.915153   -0.264569
      3          6           0       14.921897   -9.008441    0.475132
      4          6           0       14.177019   -7.831007    0.594306
      5          6           0       12.959257   -8.020207   -0.095554
      6          6           0       10.526479   -5.079259   -0.523127
      7          6           0       10.504071   -3.696859   -0.643921
      8          6           0       11.690515   -2.960144   -0.601837
      9          6           0       12.906086   -3.634636   -0.466072
     10          6           0       12.938874   -5.017365   -0.344831
     11          6           0       11.745343   -5.779394   -0.345727
     12          6           0       11.760988   -7.216130   -0.212405
     13          6           0       10.572439   -8.017794   -0.060297
     14          6           0        9.365879   -7.805356    0.644640
     15          6           0        8.617673   -8.983023    0.570952
     16          6           0        9.407256   -9.909443   -0.164831
     17          7           0       10.553265   -9.338862   -0.533253
     18          9           0       11.748501  -11.334073   -1.185717
     19          5           0       11.739590   -9.954196   -1.320693
     20          9           0       11.701434   -9.557082   -2.652076
     21          1           0       14.320124  -10.943443   -0.554384
     22          1           0       14.459243   -6.945375    1.155520
     23          1           0        9.593419   -5.635053   -0.600903
     24          1           0        9.549980   -3.187874   -0.785377
     25          1           0       11.669428   -1.874252   -0.695275
     26          1           0       13.842777   -3.076116   -0.463417
     27          1           0       13.901931   -5.518982   -0.279749
     28          1           0        9.099261   -6.898556    1.180296
     29          1           0        9.187840  -10.940679   -0.433947
     30          6           0       16.333254   -9.270442    1.032829
     31          6           0       16.552529   -9.393362    2.415269
     32          6           0       17.438288   -9.393362    0.173689
     33          6           0       17.829828   -9.630498    2.920341
     34          6           0       18.715825   -9.630498    0.678159
     35          6           0       18.917696   -9.750210    2.054070
     36          1           0       15.713383   -9.301933    3.097866
     37          1           0       17.292403   -9.301933   -0.898143
     38          1           0       17.975276   -9.721907    3.992953
     39          1           0       19.555186   -9.721907   -0.005307
     40          1           0       19.912978   -9.934972    2.447355
     41          6           0        7.218993   -9.228676    1.166728
     42          6           0        6.090518   -9.343927    0.337516
     43          6           0        7.035055   -9.343927    2.554969
     44          6           0        4.824447   -9.566267    0.876454
     45          6           0        5.769238   -9.566267    3.094503
     46          6           0        4.657766   -9.678510    2.257697
     47          1           0        6.208977   -9.258202   -0.738162
     48          1           0        7.892779   -9.258202    3.214837
     49          1           0        3.966486   -9.651972    0.215724
     50          1           0        5.651237   -9.651972    4.170950
     51          1           0        3.671424   -9.851743    2.677835
 ---------------------------------------------------------------------
 Rotational constants (GHZ):      0.1889320      0.0731765      0.0619827
 Leave Link  202 at Tue Apr 21 13:06:33 2020, MaxMem= 12079595520 cpu:         0.2
 (Enter /scratch/prg/gaussian/bin/g09/l301.exe)
 Standard basis: CC-pVDZ (5D, 7F)
 Ernie: Thresh=  0.10000D-02 Tol=  0.10000D-05 Strict=F.
 Ernie:  64 primitive shells out of 799 were deleted.
   543 basis functions,  1189 primitive gaussians,   575 cartesian basis functions
   109 alpha electrons      109 beta electrons
       nuclear repulsion energy      2835.9055455617 Hartrees.
 IExCor= 4336 DFT=T Ex+Corr=M062X ExCW=0 ScaHFX=  0.540000
 ScaDFX=  1.000000  1.000000  1.000000  1.000000 ScalE2=  1.000000  1.000000
 IRadAn=      5 IRanWt=     -1 IRanGd=            0 ICorTp=0 IEmpDi=  4
 NAtoms=   51 NActive=   51 NUniq=   51 SFac= 1.00D+00 NAtFMM=   60 NAOKFM=F Big=F
 Integral buffers will be    131072 words long.
 Regular integral format.
 Two-electron integral symmetry is turned off.
 ------------------------------------------------------------------------------
 Polarizable Continuum Model (PCM)
 =================================
 Model                : C-PCM.
 Atomic radii         : UFF (Universal Force Field).
 Polarization charges : Total charges.
 Charge compensation  : None.
 Solution method      : On-the-fly selection.
 Cavity type          : Scaled VdW (van der Waals Surface) (Alpha=1.100).
 Cavity algorithm     : GePol (No added spheres)
                        Default sphere list used, NSphG=   51.
                        Lebedev-Laikov grids with approx.  5.0 points / Ang**2.
                        Smoothing algorithm: Karplus/York (Gamma=1.0000).
                        Polarization charges: spherical gaussians, with
                                              point-specific exponents (IZeta= 3).
                        Self-potential: point-specific (ISelfS= 7).
                        Self-field    : sphere-specific E.n sum rule (ISelfD= 2).
 1st derivatives      : Analytical E(r).r(x)/FMM algorithm (CHGder, D1EAlg=3).
                        Cavity 1st derivative terms included.
 Solvent              : Toluene, Eps=   2.374100 Eps(inf)=   2.238315
 ------------------------------------------------------------------------------
 GePol: Number of generator spheres                  =      51
 GePol: Total number of spheres                      =      51
 GePol: Number of exposed spheres                    =      51 (100.00%)
 GePol: Number of points                             =    4011
 GePol: Average weight of points                     =       0.13
 GePol: Minimum weight of points                     =   0.25D-09
 GePol: Maximum weight of points                     =    0.20577
 GePol: Number of points with low weight             =     304
 GePol: Fraction of low-weight points (<1% of avg)   =       7.58%
 GePol: Cavity surface area                          =    504.890 Ang**2
 GePol: Cavity volume                                =    561.242 Ang**3
 Leave Link  301 at Tue Apr 21 13:06:33 2020, MaxMem= 12079595520 cpu:         1.8
 (Enter /scratch/prg/gaussian/bin/g09/linda-exe/l302.exel)
 NPDir=0 NMtPBC=     1 NCelOv=     1 NCel=       1 NClECP=     1 NCelD=      1
         NCelK=      1 NCelE2=     1 NClLst=     1 CellRange=     0.0.
 One-electron integrals computed using PRISM.
 NBasis=   543 RedAO= T EigKep=  2.92D-04  NBF=   543
 NBsUse=   543 1.00D-06 EigRej= -1.00D+00 NBFU=   543
 Precomputing XC quadrature grid using
 IXCGrd= 4 IRadAn=           5 IRanWt=          -1 IRanGd=           0 AccXCQ= 0.00D+00.
 Generated NRdTot=       0 NPtTot=           0 NUsed=           0 NTot=          32
 NSgBfM=   549   549   549   549   549 MxSgAt=    51 MxSgA2=    51.
 Leave Link  302 at Tue Apr 21 13:06:36 2020, MaxMem= 12079595520 cpu:        25.0
 (Enter /scratch/prg/gaussian/bin/g09/l308.exe)
 Leave Link  308 at Tue Apr 21 13:06:37 2020, MaxMem= 12079595520 cpu:         3.8
 (Enter /scratch/prg/gaussian/bin/g09/l303.exe)
 DipDrv:  MaxL=1.
 Leave Link  303 at Tue Apr 21 13:06:37 2020, MaxMem= 12079595520 cpu:         2.6
 (Enter /scratch/prg/gaussian/bin/g09/linda-exe/l401.exel)
 ExpMin= 9.54D-02 ExpMax= 1.47D+04 ExpMxC= 5.03D+02 IAcc=3 IRadAn=         5 AccDes= 0.00D+00
 Harris functional with IExCor= 1009 and IRadAn=       5 diagonalized for initial guess.
 HarFok:  IExCor= 1009 AccDes= 0.00D+00 IRadAn=         5 IDoV= 1 UseB2=F ITyADJ=14
 ICtDFT=  3500011 ScaDFX=  1.000000  1.000000  1.000000  1.000000
 FoFCou: FMM=F IPFlag=           0 FMFlag=      100000 FMFlg1=           0
         NFxFlg=           0 DoJE=T BraDBF=F KetDBF=T FulRan=T
         wScrn=  0.000000 ICntrl=     500 IOpCl=  0 I1Cent=   200000004 NGrid=           0
         NMat0=    1 NMatS0=      1 NMatT0=    0 NMatD0=    1 NMtDS0=    0 NMtDT0=    0
 Symmetry not used in FoFCou.
 Harris En= -1373.25054871599    
 JPrj=0 DoOrth=F DoCkMO=F.
 Leave Link  401 at Tue Apr 21 13:06:42 2020, MaxMem= 12079595520 cpu:        54.5
 (Enter /scratch/prg/gaussian/bin/g09/linda-exe/l502.exel)
 Closed shell SCF:
 Using DIIS extrapolation, IDIIS=  1040.
 Two-electron integral symmetry not used.
 Keep R1 ints in memory in canonical form, NReq=11003700133.
 IVT=     1020877 IEndB=     1020877 NGot= 12079595520 MDV=  1171446588
 LenX=  1171446588 LenY=  1171115388
 Requested convergence on RMS density matrix=1.00D-08 within 128 cycles.
 Requested convergence on MAX density matrix=1.00D-06.
 Requested convergence on             energy=1.00D-06.
 No special actions if energy rises.
 FoFCou: FMM=F IPFlag=           0 FMFlag=           0 FMFlg1=           0
         NFxFlg=           0 DoJE=F BraDBF=F KetDBF=F FulRan=T
         wScrn=  0.000000 ICntrl=     600 IOpCl=  0 I1Cent=           0 NGrid=           0
         NMat0=    1 NMatS0= 147696 NMatT0=    0 NMatD0=    1 NMtDS0=    0 NMtDT0=    0
 Symmetry not used in FoFCou.

 Cycle   1  Pass 1  IDiag  1:
 Inv3:  Mode=1 IEnd=    48264363.
 Iteration    1 A*A^-1 deviation from unit magnitude is 9.99D-15 for   1840.
 Iteration    1 A*A^-1 deviation from orthogonality  is 5.15D-15 for   3812     94.
 Iteration    1 A^-1*A deviation from unit magnitude is 9.77D-15 for   1840.
 Iteration    1 A^-1*A deviation from orthogonality  is 5.56D-15 for   2838   2619.
 E= -1373.59880919720    
 DIIS: error= 3.63D-02 at cycle   1 NSaved=   1.
 NSaved= 1 IEnMin= 1 EnMin= -1373.59880919720     IErMin= 1 ErrMin= 3.63D-02
 ErrMax= 3.63D-02  0.00D+00 EMaxC= 1.00D-01 BMatC= 5.18D-01 BMatP= 5.18D-01
 IDIUse=3 WtCom= 6.37D-01 WtEn= 3.63D-01
 Coeff-Com:  0.100D+01
 Coeff-En:   0.100D+01
 Coeff:      0.100D+01
 Gap=     0.144 Goal=   None    Shift=    0.000
 GapD=    0.144 DampG=1.000 DampE=0.500 DampFc=0.5000 IDamp=-1.
 Damping current iteration by 5.00D-01
 RMSDP=3.02D-03 MaxDP=9.07D-02              OVMax= 1.32D-01

 Cycle   2  Pass 1  IDiag  1:
 E= -1373.86944687389     Delta-E=       -0.270637676691 Rises=F Damp=T
 DIIS: error= 7.34D-03 at cycle   2 NSaved=   2.
 NSaved= 2 IEnMin= 2 EnMin= -1373.86944687389     IErMin= 2 ErrMin= 7.34D-03
 ErrMax= 7.34D-03  0.00D+00 EMaxC= 1.00D-01 BMatC= 4.47D-02 BMatP= 5.18D-01
 IDIUse=3 WtCom= 9.27D-01 WtEn= 7.34D-02
 Coeff-Com: -0.131D+00 0.113D+01
 Coeff-En:   0.000D+00 0.100D+01
 Coeff:     -0.121D+00 0.112D+01
 Gap=     0.181 Goal=   None    Shift=    0.000
 RMSDP=1.05D-03 MaxDP=7.11D-02 DE=-2.71D-01 OVMax= 1.25D-01

 Cycle   3  Pass 1  IDiag  1:
 E= -1374.10478200345     Delta-E=       -0.235335129559 Rises=F Damp=F
 DIIS: error= 5.96D-03 at cycle   3 NSaved=   3.
 NSaved= 3 IEnMin= 3 EnMin= -1374.10478200345     IErMin= 3 ErrMin= 5.96D-03
 ErrMax= 5.96D-03  0.00D+00 EMaxC= 1.00D-01 BMatC= 2.15D-02 BMatP= 4.47D-02
 IDIUse=3 WtCom= 9.40D-01 WtEn= 5.96D-02
 Coeff-Com: -0.117D+00 0.495D+00 0.621D+00
 Coeff-En:   0.000D+00 0.000D+00 0.100D+01
 Coeff:     -0.110D+00 0.466D+00 0.644D+00
 Gap=     0.145 Goal=   None    Shift=    0.000
 RMSDP=3.76D-04 MaxDP=2.85D-02 DE=-2.35D-01 OVMax= 6.00D-02

 Cycle   4  Pass 1  IDiag  1:
 E= -1374.12080243995     Delta-E=       -0.016020436501 Rises=F Damp=F
 DIIS: error= 2.48D-03 at cycle   4 NSaved=   4.
 NSaved= 4 IEnMin= 4 EnMin= -1374.12080243995     IErMin= 4 ErrMin= 2.48D-03
 ErrMax= 2.48D-03  0.00D+00 EMaxC= 1.00D-01 BMatC= 5.41D-03 BMatP= 2.15D-02
 IDIUse=3 WtCom= 9.75D-01 WtEn= 2.48D-02
 Coeff-Com: -0.413D-01 0.118D+00 0.365D+00 0.558D+00
 Coeff-En:   0.000D+00 0.000D+00 0.212D+00 0.788D+00
 Coeff:     -0.403D-01 0.115D+00 0.362D+00 0.564D+00
 Gap=     0.149 Goal=   None    Shift=    0.000
 RMSDP=1.46D-04 MaxDP=1.06D-02 DE=-1.60D-02 OVMax= 2.43D-02

 Cycle   5  Pass 1  IDiag  1:
 E= -1374.12617716072     Delta-E=       -0.005374720765 Rises=F Damp=F
 DIIS: error= 3.86D-04 at cycle   5 NSaved=   5.
 NSaved= 5 IEnMin= 5 EnMin= -1374.12617716072     IErMin= 5 ErrMin= 3.86D-04
 ErrMax= 3.86D-04  0.00D+00 EMaxC= 1.00D-01 BMatC= 2.22D-04 BMatP= 5.41D-03
 IDIUse=3 WtCom= 9.96D-01 WtEn= 3.86D-03
 Coeff-Com: -0.101D-01 0.180D-01 0.120D+00 0.258D+00 0.615D+00
 Coeff-En:   0.000D+00 0.000D+00 0.000D+00 0.000D+00 0.100D+01
 Coeff:     -0.100D-01 0.179D-01 0.119D+00 0.257D+00 0.616D+00
 Gap=     0.148 Goal=   None    Shift=    0.000
 RMSDP=3.44D-05 MaxDP=1.77D-03 DE=-5.37D-03 OVMax= 4.09D-03

 Cycle   6  Pass 1  IDiag  1:
 E= -1374.12639187369     Delta-E=       -0.000214712970 Rises=F Damp=F
 DIIS: error= 1.21D-04 at cycle   6 NSaved=   6.
 NSaved= 6 IEnMin= 6 EnMin= -1374.12639187369     IErMin= 6 ErrMin= 1.21D-04
 ErrMax= 1.21D-04  0.00D+00 EMaxC= 1.00D-01 BMatC= 1.69D-05 BMatP= 2.22D-04
 IDIUse=3 WtCom= 9.99D-01 WtEn= 1.21D-03
 Coeff-Com: -0.188D-02 0.871D-03 0.284D-01 0.750D-01 0.280D+00 0.618D+00
 Coeff-En:   0.000D+00 0.000D+00 0.000D+00 0.000D+00 0.000D+00 0.100D+01
 Coeff:     -0.187D-02 0.870D-03 0.284D-01 0.749D-01 0.280D+00 0.618D+00
 Gap=     0.148 Goal=   None    Shift=    0.000
 RMSDP=8.92D-06 MaxDP=5.17D-04 DE=-2.15D-04 OVMax= 1.21D-03

 Cycle   7  Pass 1  IDiag  1:
 E= -1374.12641026119     Delta-E=       -0.000018387505 Rises=F Damp=F
 DIIS: error= 3.31D-05 at cycle   7 NSaved=   7.
 NSaved= 7 IEnMin= 7 EnMin= -1374.12641026119     IErMin= 7 ErrMin= 3.31D-05
 ErrMax= 3.31D-05  0.00D+00 EMaxC= 1.00D-01 BMatC= 1.13D-06 BMatP= 1.69D-05
 IDIUse=1 WtCom= 1.00D+00 WtEn= 0.00D+00
 Coeff-Com:  0.315D-03-0.157D-02-0.102D-02 0.332D-02 0.452D-01 0.223D+00
 Coeff-Com:  0.731D+00
 Coeff:      0.315D-03-0.157D-02-0.102D-02 0.332D-02 0.452D-01 0.223D+00
 Coeff:      0.731D+00
 Gap=     0.148 Goal=   None    Shift=    0.000
 RMSDP=2.87D-06 MaxDP=1.17D-04 DE=-1.84D-05 OVMax= 4.15D-04

 Cycle   8  Pass 1  IDiag  1:
 E= -1374.12641162895     Delta-E=       -0.000001367759 Rises=F Damp=F
 DIIS: error= 1.22D-05 at cycle   8 NSaved=   8.
 NSaved= 8 IEnMin= 8 EnMin= -1374.12641162895     IErMin= 8 ErrMin= 1.22D-05
 ErrMax= 1.22D-05  0.00D+00 EMaxC= 1.00D-01 BMatC= 1.88D-07 BMatP= 1.13D-06
 IDIUse=1 WtCom= 1.00D+00 WtEn= 0.00D+00
 Coeff-Com:  0.532D-03-0.933D-03-0.590D-02-0.129D-01-0.324D-01-0.151D-01
 Coeff-Com:  0.307D+00 0.760D+00
 Coeff:      0.532D-03-0.933D-03-0.590D-02-0.129D-01-0.324D-01-0.151D-01
 Coeff:      0.307D+00 0.760D+00
 Gap=     0.148 Goal=   None    Shift=    0.000
 RMSDP=1.32D-06 MaxDP=7.90D-05 DE=-1.37D-06 OVMax= 2.10D-04

 Cycle   9  Pass 1  IDiag  1:
 E= -1374.12641190929     Delta-E=       -0.000000280343 Rises=F Damp=F
 DIIS: error= 2.83D-06 at cycle   9 NSaved=   9.
 NSaved= 9 IEnMin= 9 EnMin= -1374.12641190929     IErMin= 9 ErrMin= 2.83D-06
 ErrMax= 2.83D-06  0.00D+00 EMaxC= 1.00D-01 BMatC= 1.02D-08 BMatP= 1.88D-07
 IDIUse=1 WtCom= 1.00D+00 WtEn= 0.00D+00
 Coeff-Com:  0.128D-03-0.167D-03-0.149D-02-0.367D-02-0.110D-01-0.145D-01
 Coeff-Com:  0.419D-01 0.224D+00 0.765D+00
 Coeff:      0.128D-03-0.167D-03-0.149D-02-0.367D-02-0.110D-01-0.145D-01
 Coeff:      0.419D-01 0.224D+00 0.765D+00
 Gap=     0.148 Goal=   None    Shift=    0.000
 RMSDP=3.51D-07 MaxDP=1.86D-05 DE=-2.80D-07 OVMax= 5.95D-05

 Cycle  10  Pass 1  IDiag  1:
 E= -1374.12641192623     Delta-E=       -0.000000016937 Rises=F Damp=F
 DIIS: error= 1.65D-06 at cycle  10 NSaved=  10.
 NSaved=10 IEnMin=10 EnMin= -1374.12641192623     IErMin=10 ErrMin= 1.65D-06
 ErrMax= 1.65D-06  0.00D+00 EMaxC= 1.00D-01 BMatC= 3.12D-09 BMatP= 1.02D-08
 IDIUse=1 WtCom= 1.00D+00 WtEn= 0.00D+00
 Coeff-Com: -0.241D-04 0.678D-04 0.253D-03 0.338D-03-0.224D-04-0.528D-02
 Coeff-Com: -0.354D-01-0.245D-01 0.355D+00 0.710D+00
 Coeff:     -0.241D-04 0.678D-04 0.253D-03 0.338D-03-0.224D-04-0.528D-02
 Coeff:     -0.354D-01-0.245D-01 0.355D+00 0.710D+00
 Gap=     0.148 Goal=   None    Shift=    0.000
 RMSDP=1.70D-07 MaxDP=9.21D-06 DE=-1.69D-08 OVMax= 2.87D-05

 Cycle  11  Pass 1  IDiag  1:
 E= -1374.12641193088     Delta-E=       -0.000000004652 Rises=F Damp=F
 DIIS: error= 5.23D-07 at cycle  11 NSaved=  11.
 NSaved=11 IEnMin=11 EnMin= -1374.12641193088     IErMin=11 ErrMin= 5.23D-07
 ErrMax= 5.23D-07  0.00D+00 EMaxC= 1.00D-01 BMatC= 3.56D-10 BMatP= 3.12D-09
 IDIUse=1 WtCom= 1.00D+00 WtEn= 0.00D+00
 Coeff-Com: -0.296D-04 0.545D-04 0.329D-03 0.685D-03 0.167D-02-0.227D-03
 Coeff-Com: -0.216D-01-0.442D-01 0.459D-01 0.308D+00 0.709D+00
 Coeff:     -0.296D-04 0.545D-04 0.329D-03 0.685D-03 0.167D-02-0.227D-03
 Coeff:     -0.216D-01-0.442D-01 0.459D-01 0.308D+00 0.709D+00
 Gap=     0.148 Goal=   None    Shift=    0.000
 RMSDP=6.56D-08 MaxDP=2.77D-06 DE=-4.65D-09 OVMax= 1.23D-05

 Cycle  12  Pass 1  IDiag  1:
 E= -1374.12641193139     Delta-E=       -0.000000000509 Rises=F Damp=F
 DIIS: error= 2.14D-07 at cycle  12 NSaved=  12.
 NSaved=12 IEnMin=12 EnMin= -1374.12641193139     IErMin=12 ErrMin= 2.14D-07
 ErrMax= 2.14D-07  0.00D+00 EMaxC= 1.00D-01 BMatC= 5.51D-11 BMatP= 3.56D-10
 IDIUse=1 WtCom= 1.00D+00 WtEn= 0.00D+00
 Coeff-Com: -0.937D-05 0.142D-04 0.108D-03 0.244D-03 0.736D-03 0.540D-03
 Coeff-Com: -0.410D-02-0.147D-01-0.247D-01 0.426D-01 0.317D+00 0.682D+00
 Coeff:     -0.937D-05 0.142D-04 0.108D-03 0.244D-03 0.736D-03 0.540D-03
 Coeff:     -0.410D-02-0.147D-01-0.247D-01 0.426D-01 0.317D+00 0.682D+00
 Gap=     0.148 Goal=   None    Shift=    0.000
 RMSDP=2.16D-08 MaxDP=1.02D-06 DE=-5.09D-10 OVMax= 3.19D-06

 Cycle  13  Pass 1  IDiag  1:
 E= -1374.12641193144     Delta-E=       -0.000000000051 Rises=F Damp=F
 DIIS: error= 6.78D-08 at cycle  13 NSaved=  13.
 NSaved=13 IEnMin=13 EnMin= -1374.12641193144     IErMin=13 ErrMin= 6.78D-08
 ErrMax= 6.78D-08  0.00D+00 EMaxC= 1.00D-01 BMatC= 3.60D-12 BMatP= 5.51D-11
 IDIUse=1 WtCom= 1.00D+00 WtEn= 0.00D+00
 Coeff-Com:  0.128D-05-0.306D-05-0.125D-04-0.255D-04 0.108D-05 0.145D-03
 Coeff-Com:  0.171D-02 0.136D-02-0.164D-01-0.281D-01 0.276D-02 0.125D+00
 Coeff-Com:  0.913D+00
 Coeff:      0.128D-05-0.306D-05-0.125D-04-0.255D-04 0.108D-05 0.145D-03
 Coeff:      0.171D-02 0.136D-02-0.164D-01-0.281D-01 0.276D-02 0.125D+00
 Coeff:      0.913D+00
 Gap=     0.148 Goal=   None    Shift=    0.000
 RMSDP=1.10D-08 MaxDP=4.76D-07 DE=-5.09D-11 OVMax= 2.59D-06

 Cycle  14  Pass 1  IDiag  1:
 E= -1374.12641193146     Delta-E=       -0.000000000014 Rises=F Damp=F
 DIIS: error= 2.74D-08 at cycle  14 NSaved=  14.
 NSaved=14 IEnMin=14 EnMin= -1374.12641193146     IErMin=14 ErrMin= 2.74D-08
 ErrMax= 2.74D-08  0.00D+00 EMaxC= 1.00D-01 BMatC= 1.05D-12 BMatP= 3.60D-12
 IDIUse=1 WtCom= 1.00D+00 WtEn= 0.00D+00
 Coeff-Com:  0.145D-05-0.250D-05-0.160D-04-0.371D-04-0.787D-04-0.303D-04
 Coeff-Com:  0.976D-03 0.216D-02-0.110D-02-0.102D-01-0.334D-01-0.922D-01
 Coeff-Com:  0.310D+00 0.824D+00
 Coeff:      0.145D-05-0.250D-05-0.160D-04-0.371D-04-0.787D-04-0.303D-04
 Coeff:      0.976D-03 0.216D-02-0.110D-02-0.102D-01-0.334D-01-0.922D-01
 Coeff:      0.310D+00 0.824D+00
 Gap=     0.148 Goal=   None    Shift=    0.000
 RMSDP=4.22D-09 MaxDP=2.33D-07 DE=-1.36D-11 OVMax= 9.12D-07

 Error on total polarization charges =  0.00948
 SCF Done:  E(RM062X) =  -1374.12641193     A.U. after   14 cycles
            NFock= 14  Conv=0.42D-08     -V/T= 2.0065
 KE= 1.365239332968D+03 PE=-8.871786211881D+03 EE= 3.296514921420D+03
 Leave Link  502 at Tue Apr 21 13:18:12 2020, MaxMem= 12079595520 cpu:      2977.2
 (Enter /scratch/prg/gaussian/bin/g09/l801.exe)
 DoSCS=F DFT=T ScalE2(SS,OS)=  1.000000  1.000000
 ExpMin= 9.54D-02 ExpMax= 1.47D+04 ExpMxC= 5.03D+02 IAcc=3 IRadAn=         5 AccDes= 0.00D+00
 HarFok:  IExCor=  205 AccDes= 0.00D+00 IRadAn=         5 IDoV=-2 UseB2=F ITyADJ=14
 ICtDFT= 12500011 ScaDFX=  1.000000  1.000000  1.000000  1.000000
 Largest valence mixing into a core orbital is  7.95D-05
 Largest core mixing into a valence orbital is  5.06D-05
 Range of M.O.s used for correlation:    33   543
 NBasis=   543 NAE=   109 NBE=   109 NFC=    32 NFV=     0
 NROrb=    511 NOA=    77 NOB=    77 NVA=   434 NVB=   434

 **** Warning!!: The largest alpha MO coefficient is  0.12919746D+02

 Leave Link  801 at Tue Apr 21 13:18:17 2020, MaxMem= 12079595520 cpu:         5.8
 (Enter /scratch/prg/gaussian/bin/g09/linda-exe/l914.exel)
 RHF ground state
 MDV= 12079595520 DFT=T DoStab=F Mixed=T DoRPA=T DoScal=F NonHer=T
 Would need an additional         21069900000 words for in-memory AO integral storage.
 NEqPCM:  Using equilibrium solvation (IEInf=0, Eps=   2.3741, EpsInf=   2.2383)
 Making orbital integer symmetry assigments:
    24 initial guesses have been made.
 Convergence on wavefunction:    0.000001000000000
 Davidson Disk Diagonalization:  ConvIn= 1.00D-06 SkipCon=T Conv= 1.00D-06.
 Max sub-space:   200 roots to seek:    24 dimension of matrix:        66836
 Iteration     1 Dimension    24 NMult     0 NNew     24
 CISAX will form    24 AO SS matrices at one time.
 NMat=    24 NSing=    24 JSym2X= 0.
 FoFJK:  IHMeth= 1 ICntrl=       0 DoSepK=F KAlg= 0 I1Cent=   0 FoldK=F
 IRaf=         0 NMat=  48 IRICut=      60 DoRegI=T DoRafI=T ISym2E= 0.
 FoFCou: FMM=F IPFlag=           0 FMFlag=      100000 FMFlg1=           0
         NFxFlg=           0 DoJE=F BraDBF=F KetDBF=F FulRan=T
         wScrn=  0.000000 ICntrl=       0 IOpCl=  0 I1Cent=           0 NGrid=           0
         NMat0=   48 NMatS0=     24 NMatT0=    0 NMatD0=   48 NMtDS0=    0 NMtDT0=    0
 Symmetry not used in FoFCou.
 New state      2 was old state      3
 New state      3 was old state      2
 New state      5 was old state      7
 Excitation Energies [eV] at current iteration:
 Root      1 :     2.498879960831685
 Root      2 :     3.546684714970661
 Root      3 :     3.664976729315451
 Root      4 :     3.849439293029100
 Root      5 :     4.136601726111746
 Root      6 :     4.304210850716567
 Root      7 :     4.309318084219343
 Root      8 :     4.344874333100368
 Root      9 :     4.362891213486714
 Root     10 :     5.441458460433998
 Root     11 :     5.560637968778217
 Root     12 :     5.939842504115405
 Root     13 :     5.960784988411451
 Root     14 :     6.023032942948841
 Root     15 :     6.069161014771846
 Root     16 :     6.210862581754619
 Root     17 :     6.245520661726604
 Root     18 :     6.349679760143912
 Root     19 :     6.719800826037270
 Root     20 :     6.769546283383564
 Root     21 :     6.774928722256780
 Root     22 :     6.854276515978731
 Root     23 :     7.036072400326009
 Root     24 :     7.242260399879586
 Iteration     2 Dimension    36 NMult    24 NNew     12
 CISAX will form    12 AO SS matrices at one time.
 NMat=    12 NSing=    12 JSym2X= 0.
 Root      1 not converged, maximum delta is    0.070140099804605
 Root      2 not converged, maximum delta is    0.211027366720058
 Root      3 not converged, maximum delta is    0.197235586567885
 Root      4 not converged, maximum delta is    0.214678751188108
 Root      5 not converged, maximum delta is    0.163077397881792
 New state      6 was old state      8
 Root      6 not converged, maximum delta is    0.290359129563641
 Excitation Energies [eV] at current iteration:
 Root      1 :     2.025190433697789   Change is   -0.473689527133896
 Root      2 :     3.238561118974236   Change is   -0.308123595996424
 Root      3 :     3.259738116472961   Change is   -0.405238612842490
 Root      4 :     3.554127185600769   Change is   -0.295312107428331
 Root      5 :     4.053420710923542   Change is   -0.083181015188204
 Root      6 :     4.215184921075637   Change is   -0.129689412024731
 Iteration     3 Dimension    48 NMult    36 NNew     12
 CISAX will form    12 AO SS matrices at one time.
 NMat=    12 NSing=    12 JSym2X= 0.
 Root      1 not converged, maximum delta is    0.010638617041934
 Root      2 not converged, maximum delta is    0.188305245434155
 Root      3 not converged, maximum delta is    0.180322326243594
 Root      4 not converged, maximum delta is    0.004939257524302
 Root      5 not converged, maximum delta is    0.362443644142668
 Root      6 not converged, maximum delta is    0.278773625589715
 Excitation Energies [eV] at current iteration:
 Root      1 :     1.998910803181025   Change is   -0.026279630516763
 Root      2 :     3.223494175853867   Change is   -0.015066943120369
 Root      3 :     3.238673551411108   Change is   -0.021064565061853
 Root      4 :     3.544278952997050   Change is   -0.009848232603719
 Root      5 :     4.000089587640208   Change is   -0.053331123283335
 Root      6 :     4.084142318068003   Change is   -0.131042603007634
 Iteration     4 Dimension    60 NMult    48 NNew     12
 CISAX will form    12 AO SS matrices at one time.
 NMat=    12 NSing=    12 JSym2X= 0.
 Root      1 not converged, maximum delta is    0.004433148336822
 Root      2 not converged, maximum delta is    0.043131183480272
 Root      3 not converged, maximum delta is    0.042274952818341
 Root      4 not converged, maximum delta is    0.003325541531641
 Root      5 not converged, maximum delta is    0.060890376991580
 Root      6 not converged, maximum delta is    0.078987291807401
 Excitation Energies [eV] at current iteration:
 Root      1 :     1.996145760916721   Change is   -0.002765042264304
 Root      2 :     3.220721630899092   Change is   -0.002772544954775
 Root      3 :     3.236333096496111   Change is   -0.002340454914997
 Root      4 :     3.542368640848922   Change is   -0.001910312148127
 Root      5 :     3.976492473943697   Change is   -0.023597113696510
 Root      6 :     4.076564130885401   Change is   -0.007578187182602
 Iteration     5 Dimension    72 NMult    60 NNew     12
 CISAX will form    12 AO SS matrices at one time.
 NMat=    12 NSing=    12 JSym2X= 0.
 Root      1 not converged, maximum delta is    0.000540063328116
 Root      2 not converged, maximum delta is    0.001855759744637
 Root      3 not converged, maximum delta is    0.002018743332820
 Root      4 not converged, maximum delta is    0.000934348316819
 Root      5 not converged, maximum delta is    0.005535813073267
 Root      6 not converged, maximum delta is    0.005867615803605
 Excitation Energies [eV] at current iteration:
 Root      1 :     1.996012427850604   Change is   -0.000133333066117
 Root      2 :     3.220547397696853   Change is   -0.000174233202238
 Root      3 :     3.236193038594387   Change is   -0.000140057901723
 Root      4 :     3.542213928715583   Change is   -0.000154712133339
 Root      5 :     3.974443447330881   Change is   -0.002049026612816
 Root      6 :     4.075885584309684   Change is   -0.000678546575717
 Iteration     6 Dimension    84 NMult    72 NNew     12
 CISAX will form    12 AO SS matrices at one time.
 NMat=    12 NSing=    12 JSym2X= 0.
 Root      1 not converged, maximum delta is    0.000157095470414
 Root      2 not converged, maximum delta is    0.000407193756660
 Root      3 not converged, maximum delta is    0.000336632383006
 Root      4 not converged, maximum delta is    0.000363193213483
 Root      5 not converged, maximum delta is    0.001522800419483
 Root      6 not converged, maximum delta is    0.001038038138012
 Excitation Energies [eV] at current iteration:
 Root      1 :     1.996003024403601   Change is   -0.000009403447003
 Root      2 :     3.220529123423126   Change is   -0.000018274273727
 Root      3 :     3.236178697677681   Change is   -0.000014340916707
 Root      4 :     3.542195605391253   Change is   -0.000018323324330
 Root      5 :     3.974263854976681   Change is   -0.000179592354200
 Root      6 :     4.075818096347147   Change is   -0.000067487962537
 Iteration     7 Dimension    96 NMult    84 NNew     12
 CISAX will form    12 AO SS matrices at one time.
 NMat=    12 NSing=    12 JSym2X= 0.
 Root      1 not converged, maximum delta is    0.000026249651358
 Root      2 not converged, maximum delta is    0.000146331259673
 Root      3 not converged, maximum delta is    0.000106324005933
 Root      4 not converged, maximum delta is    0.000152761991583
 Root      5 not converged, maximum delta is    0.000326753808912
 Root      6 not converged, maximum delta is    0.000273259717452
 Excitation Energies [eV] at current iteration:
 Root      1 :     1.996002326307969   Change is   -0.000000698095632
 Root      2 :     3.220527502662722   Change is   -0.000001620760404
 Root      3 :     3.236177427051502   Change is   -0.000001270626179
 Root      4 :     3.542193711629285   Change is   -0.000001893761967
 Root      5 :     3.974250255388417   Change is   -0.000013599588264
 Root      6 :     4.075810791798763   Change is   -0.000007304548383
 Iteration     8 Dimension   108 NMult    96 NNew     12
 CISAX will form    12 AO SS matrices at one time.
 NMat=    12 NSing=    12 JSym2X= 0.
 Root      1 not converged, maximum delta is    0.000007663708142
 Root      2 not converged, maximum delta is    0.000021722795225
 Root      3 not converged, maximum delta is    0.000017184275728
 Root      4 not converged, maximum delta is    0.000024076592131
 Root      5 not converged, maximum delta is    0.000087854242883
 Root      6 not converged, maximum delta is    0.000109234519583
 Excitation Energies [eV] at current iteration:
 Root      1 :     1.996002290168956   Change is   -0.000000036139013
 Root      2 :     3.220527382279051   Change is   -0.000000120383670
 Root      3 :     3.236177341380782   Change is   -0.000000085670720
 Root      4 :     3.542193562054541   Change is   -0.000000149574744
 Root      5 :     3.974248752928531   Change is   -0.000001502459886
 Root      6 :     4.075809786160042   Change is   -0.000001005638721
 Iteration     9 Dimension   120 NMult   108 NNew     12
 CISAX will form    12 AO SS matrices at one time.
 NMat=    12 NSing=    12 JSym2X= 0.
 Root      1 not converged, maximum delta is    0.000001448683600
 Root      2 not converged, maximum delta is    0.000005204292678
 Root      3 not converged, maximum delta is    0.000004032961533
 Root      4 not converged, maximum delta is    0.000005545467726
 Root      5 not converged, maximum delta is    0.000055402270093
 Root      6 not converged, maximum delta is    0.000045610906638
 Excitation Energies [eV] at current iteration:
 Root      1 :     1.996002287838812   Change is   -0.000000002330144
 Root      2 :     3.220527373334016   Change is   -0.000000008945035
 Root      3 :     3.236177333719416   Change is   -0.000000007661366
 Root      4 :     3.542193548751113   Change is   -0.000000013303428
 Root      5 :     3.974248527420986   Change is   -0.000000225507545
 Root      6 :     4.075809659372458   Change is   -0.000000126787585
 Iteration    10 Dimension   132 NMult   120 NNew     12
 CISAX will form    12 AO SS matrices at one time.
 NMat=    12 NSing=    12 JSym2X= 0.
 Root      1 has converged.
 Root      2 not converged, maximum delta is    0.000001210071257
 Root      3 has converged.
 Root      4 not converged, maximum delta is    0.000003454833634
 Root      5 not converged, maximum delta is    0.000031492554521
 Root      6 not converged, maximum delta is    0.000016231792947
 Excitation Energies [eV] at current iteration:
 Root      1 :     1.996002287661012   Change is   -0.000000000177800
 Root      2 :     3.220527372709622   Change is   -0.000000000624394
 Root      3 :     3.236177333290035   Change is   -0.000000000429381
 Root      4 :     3.542193547625451   Change is   -0.000000001125661
 Root      5 :     3.974248491481445   Change is   -0.000000035939541
 Root      6 :     4.075809641980743   Change is   -0.000000017391714
 Iteration    11 Dimension   140 NMult   132 NNew      8
 CISAX will form     8 AO SS matrices at one time.
 NMat=     8 NSing=     8 JSym2X= 0.
 Root      1 has converged.
 Root      2 has converged.
 Root      3 has converged.
 Root      4 has converged.
 Root      5 not converged, maximum delta is    0.000007117883104
 Root      6 not converged, maximum delta is    0.000003644737564
 Excitation Energies [eV] at current iteration:
 Root      1 :     1.996002287660888   Change is   -0.000000000000123
 Root      2 :     3.220527372673605   Change is   -0.000000000036017
 Root      3 :     3.236177333280052   Change is   -0.000000000009983
 Root      4 :     3.542193547539280   Change is   -0.000000000086172
 Root      5 :     3.974248487736583   Change is   -0.000000003744862
 Root      6 :     4.075809640478289   Change is   -0.000000001502455
 Iteration    12 Dimension   144 NMult   140 NNew      4
 CISAX will form     4 AO SS matrices at one time.
 NMat=     4 NSing=     4 JSym2X= 0.
 Root      1 has converged.
 Root      2 has converged.
 Root      3 has converged.
 Root      4 has converged.
 Root      5 not converged, maximum delta is    0.000001387461572
 Root      6 has converged.
 Excitation Energies [eV] at current iteration:
 Root      1 :     1.996002287658952   Change is   -0.000000000001936
 Root      2 :     3.220527372671129   Change is   -0.000000000002476
 Root      3 :     3.236177333280916   Change is    0.000000000000864
 Root      4 :     3.542193547533594   Change is   -0.000000000005686
 Root      5 :     3.974248487410049   Change is   -0.000000000326535
 Root      6 :     4.075809640365097   Change is   -0.000000000113192
 Iteration    13 Dimension   146 NMult   144 NNew      2
 CISAX will form     2 AO SS matrices at one time.
 NMat=     2 NSing=     2 JSym2X= 0.
 Root      1 has converged.
 Root      2 has converged.
 Root      3 has converged.
 Root      4 has converged.
 Root      5 has converged.
 Root      6 has converged.
 Excitation Energies [eV] at current iteration:
 Root      1 :     1.996002287657140   Change is   -0.000000000001812
 Root      2 :     3.220527372669036   Change is   -0.000000000002093
 Root      3 :     3.236177333279214   Change is   -0.000000000001702
 Root      4 :     3.542193547532457   Change is   -0.000000000001137
 Root      5 :     3.974248487381483   Change is   -0.000000000028566
 Root      6 :     4.075809640359551   Change is   -0.000000000005546
 Convergence achieved on expansion vectors.
 ***********************************************************************
 Excited states from <AA,BB:AA,BB> singles matrix:
 ***********************************************************************
 
 1PDM for each excited state written to RWF  633
 Ground to excited state transition densities written to RWF  633
 Ground to excited state transition electric dipole moments (Au):
       state          X           Y           Z        Dip. S.      Osc.
         1         2.6703     -0.0437     -0.0399      7.1339      0.3489
         2        -0.4979      2.1619     -0.3267      5.0284      0.3968
         3         0.7341      1.6948     -0.2608      3.4794      0.2759
         4         0.0834      0.5536     -0.3239      0.4184      0.0363
         5        -0.5249      0.0599     -0.0528      0.2819      0.0274
         6        -0.2807     -0.0036     -0.0081      0.0789      0.0079
 Ground to excited state transition velocity dipole moments (Au):
       state          X           Y           Z        Dip. S.      Osc.
         1        -0.2000      0.0035      0.0031      0.0400      0.3638
         2         0.0608     -0.2597      0.0417      0.0729      0.4104
         3        -0.0900     -0.2043      0.0334      0.0510      0.2857
         4        -0.0116     -0.0695      0.0430      0.0068      0.0349
         5         0.0833     -0.0085      0.0080      0.0071      0.0323
         6         0.0464      0.0005      0.0012      0.0022      0.0096
 Ground to excited state transition magnetic dipole moments (Au):
       state          X           Y           Z
         1        -0.0228     -0.1898     -2.3567
         2        -0.7111     -1.2067     -4.2905
         3        -0.5453     -0.4144     -6.5116
         4        -0.9564     -0.9243     -1.7360
         5        -0.0561     -0.2845      0.2146
         6        -0.0020      0.0403      0.1546
 Ground to excited state transition velocity quadrupole moments (Au):
       state          XX          YY          ZZ          XY          XZ          YZ
         1        -8.9155     -0.0889      0.0040      3.6557     -0.1895     -0.0548
         2         3.8349      6.5349      0.0987     -6.7056      0.9937     -0.4552
         3        -3.0986      5.1759      0.0817     -3.0977      0.5834     -0.3704
         4        -0.2747      1.2847      0.0118     -1.3680      0.9318     -0.5400
         5         3.7215      0.1992     -0.0060     -1.0073      0.1017     -0.0757
         6         2.0643     -0.0184     -0.0081     -0.5754      0.0514     -0.0046
 <0|del|b> * <b|rxdel|0> + <0|del|b> * <b|delr+rdel|0>
 Rotatory Strengths (R) in cgs (10**-40 erg-esu-cm/Gauss)
       state          XX          YY          ZZ    R(velocity)    E-M Angle
         1        19.5962    -15.9081    -37.2180    -11.1766       90.42
         2       337.2488     88.9834    118.7036    181.6453       85.71
         3      -349.4389    -94.3964    -55.7587   -166.5313       93.26
         4       -12.0014      4.2179     11.7025      1.3063       89.77
         5        -7.3096     -2.9843      7.7151     -0.8596       91.01
         6        -1.2323      1.4008      0.3972      0.1886       89.08
 1/2[<0|r|b>*<b|rxdel|0> + (<0|rxdel|b>*<b|r|0>)*]
 Rotatory Strengths (R) in cgs (10**-40 erg-esu-cm/Gauss)
       state          XX          YY          ZZ     R(length)
         1        43.0647     -5.8659    -66.4840     -9.7617
         2      -250.3404   1844.7848   -991.2217    201.0743
         3       283.1153    496.7309  -1200.7655   -140.3064
         4        56.3773    361.8603   -397.6157      6.8740
         5       -20.8405     12.0539      8.0161     -0.2568
         6        -0.3874      0.1039      0.8867      0.2011
  1/2[<0|del|b>*<b|r|0> + (<0|r|b>*<b|del|0>)*] (Au)
       state          X           Y           Z        Dip. S.   Osc.(frdel)
         1        -0.5341     -0.0002     -0.0001      0.5344      0.3562
         2        -0.0303     -0.5614     -0.0136      0.6053      0.4035
         3        -0.0661     -0.3462     -0.0087      0.4211      0.2807
         4        -0.0010     -0.0385     -0.0139      0.0534      0.0356
         5        -0.0437     -0.0005     -0.0004      0.0446      0.0298
         6        -0.0130      0.0000      0.0000      0.0130      0.0087

 Excitation energies and oscillator strengths:
 
 Excited state symmetry could not be determined.
 Excited State   1:      Singlet-?Sym    1.9960 eV  621.16 nm  f=0.3489  <S**2>=0.000
     109 ->110         0.69997
 This state for optimization and/or second-order correction.
 Total Energy, E(TD-HF/TD-KS) =  -1374.05306019    
 Copying the excited state density for this state as the 1-particle RhoCI density.
 
 Excited state symmetry could not be determined.
 Excited State   2:      Singlet-?Sym    3.2205 eV  384.98 nm  f=0.3968  <S**2>=0.000
     103 ->110        -0.27046
     104 ->110        -0.16541
     106 ->110         0.22672
     107 ->110         0.40007
     108 ->110         0.41521
 
 Excited state symmetry could not be determined.
 Excited State   3:      Singlet-?Sym    3.2362 eV  383.12 nm  f=0.2759  <S**2>=0.000
     103 ->110         0.35736
     104 ->110        -0.11344
     106 ->110         0.19465
     107 ->110        -0.36742
     108 ->110         0.41569
 
 Excited state symmetry could not be determined.
 Excited State   4:      Singlet-?Sym    3.5422 eV  350.02 nm  f=0.0363  <S**2>=0.000
     102 ->110         0.43350
     104 ->110        -0.19948
     105 ->110        -0.12921
     106 ->110         0.40840
     108 ->110        -0.27573
 
 Excited state symmetry could not be determined.
 Excited State   5:      Singlet-?Sym    3.9742 eV  311.97 nm  f=0.0274  <S**2>=0.000
     101 ->110         0.63276
     102 ->110        -0.14044
     103 ->110        -0.19058
     107 ->110        -0.13380
 
 Excited state symmetry could not be determined.
 Excited State   6:      Singlet-?Sym    4.0758 eV  304.20 nm  f=0.0079  <S**2>=0.000
     101 ->110         0.23890
     103 ->110         0.47344
     105 ->110        -0.11669
     107 ->110         0.41294
 SavETr:  write IOETrn=   770 NScale= 10 NData=  16 NLR=1 NState=    6 LETran=     118.
 The selected state is a singlet
 CISAX will form     1 AO SS matrices at one time.
 NMat=     1 NSing=     1 JSym2X= 0.
 GePol: Maximum number of non-zero 1st derivatives   =     217
[...]
 Alpha virt. eigenvalues --    0.53211   0.53684   0.53766   0.54109   0.54321
 Alpha virt. eigenvalues --    0.54353   0.54638   0.55326   0.55434   0.55501
 Alpha virt. eigenvalues --    0.55986   0.56109   0.56403   0.56446   0.56569
 Alpha virt. eigenvalues --    0.56985   0.57153   0.57443   0.57773   0.57805
 Alpha virt. eigenvalues --    0.58282   0.58365   0.59041   0.59174   0.59692
 Alpha virt. eigenvalues --    0.60160   0.61228   0.61475   0.61861   0.61944
 Alpha virt. eigenvalues --    0.62756   0.62784   0.63730   0.65106   0.65451
 Alpha virt. eigenvalues --    0.66187   0.66508   0.66775   0.66887   0.67494
 Alpha virt. eigenvalues --    0.67908   0.67920   0.68836   0.68970   0.69993
 Alpha virt. eigenvalues --    0.70120   0.70568   0.71707   0.72154   0.72403
 Alpha virt. eigenvalues --    0.72988   0.73057   0.73177   0.73660   0.74301
 Alpha virt. eigenvalues --    0.75237   0.75685   0.75959   0.76899   0.77073
 Alpha virt. eigenvalues --    0.78261   0.78318   0.78796   0.79507   0.81272
 Alpha virt. eigenvalues --    0.81737   0.83271   0.84086   0.85992   0.87528
 Alpha virt. eigenvalues --    0.88413   0.89493   0.91392   0.91420   0.92029
 Alpha virt. eigenvalues --    0.92240   0.92313   0.92681   0.93120   0.94107
 Alpha virt. eigenvalues --    0.94463   0.94896   0.95542   0.95673   0.95770
 Alpha virt. eigenvalues --    0.96078   0.96386   0.97156   0.97220   0.97400
 Alpha virt. eigenvalues --    0.98022   0.98423   0.98670   0.99081   0.99468
 Alpha virt. eigenvalues --    0.99830   1.00903   1.01035   1.01899   1.02202
 Alpha virt. eigenvalues --    1.02947   1.04421   1.04587   1.05284   1.05655
 Alpha virt. eigenvalues --    1.05753   1.06187   1.06972   1.07118   1.07157
 Alpha virt. eigenvalues --    1.07402   1.07953   1.08489   1.09068   1.09228
 Alpha virt. eigenvalues --    1.09843   1.10046   1.10763   1.10875   1.11134
 Alpha virt. eigenvalues --    1.11301   1.12136   1.12527   1.12844   1.13231
 Alpha virt. eigenvalues --    1.13691   1.14060   1.14955   1.16413   1.17217
 Alpha virt. eigenvalues --    1.18529   1.20179   1.23310   1.26036   1.26141
 Alpha virt. eigenvalues --    1.29913   1.31085   1.31562   1.32818   1.33047
 Alpha virt. eigenvalues --    1.33193   1.33713   1.34450   1.34615   1.35244
 Alpha virt. eigenvalues --    1.36330   1.37368   1.37433   1.38129   1.39346
 Alpha virt. eigenvalues --    1.40091   1.40459   1.41739   1.43112   1.43939
 Alpha virt. eigenvalues --    1.44055   1.45922   1.46062   1.46934   1.48741
 Alpha virt. eigenvalues --    1.48983   1.49836   1.50693   1.50738   1.51363
 Alpha virt. eigenvalues --    1.51938   1.51998   1.52756   1.52880   1.53130
 Alpha virt. eigenvalues --    1.53696   1.54734   1.54818   1.55650   1.56023
 Alpha virt. eigenvalues --    1.56484   1.56800   1.57984   1.58784   1.59891
 Alpha virt. eigenvalues --    1.60053   1.61202   1.61609   1.62267   1.63602
 Alpha virt. eigenvalues --    1.63612   1.63991   1.64380   1.64777   1.64792
 Alpha virt. eigenvalues --    1.64824   1.64979   1.65811   1.66180   1.66188
 Alpha virt. eigenvalues --    1.66737   1.66740   1.67364   1.67811   1.68220
 Alpha virt. eigenvalues --    1.69174   1.69579   1.70019   1.70253   1.70643
 Alpha virt. eigenvalues --    1.70836   1.71410   1.72211   1.72387   1.73729
 Alpha virt. eigenvalues --    1.74662   1.74775   1.75471   1.75889   1.77035
 Alpha virt. eigenvalues --    1.77221   1.77573   1.78088   1.78602   1.79189
 Alpha virt. eigenvalues --    1.79395   1.80376   1.80681   1.81117   1.81489
 Alpha virt. eigenvalues --    1.82247   1.83333   1.83824   1.84080   1.84636
 Alpha virt. eigenvalues --    1.84657   1.85236   1.86324   1.86365   1.87337
 Alpha virt. eigenvalues --    1.87876   1.88210   1.88658   1.88708   1.89008
 Alpha virt. eigenvalues --    1.89400   1.89491   1.90017   1.90653   1.91002
 Alpha virt. eigenvalues --    1.92762   1.93103   1.93235   1.94003   1.94117
 Alpha virt. eigenvalues --    1.95125   1.97110   1.97648   1.98018   1.98324
 Alpha virt. eigenvalues --    1.99798   2.00483   2.00504   2.01102   2.02244
 Alpha virt. eigenvalues --    2.02751   2.03265   2.03629   2.03695   2.04596
 Alpha virt. eigenvalues --    2.05196   2.06655   2.08044   2.09925   2.10801
 Alpha virt. eigenvalues --    2.11968   2.14253   2.14605   2.15078   2.16503
 Alpha virt. eigenvalues --    2.16718   2.17849   2.19579   2.21536   2.23180
 Alpha virt. eigenvalues --    2.23237   2.24688   2.24810   2.26499   2.30167
 Alpha virt. eigenvalues --    2.31048   2.32002   2.32214   2.32533   2.33798
 Alpha virt. eigenvalues --    2.35800   2.35947   2.38454   2.39527   2.40107
 Alpha virt. eigenvalues --    2.40167   2.40682   2.41379   2.43511   2.44254
 Alpha virt. eigenvalues --    2.45185   2.45382   2.46333   2.46791   2.47038
 Alpha virt. eigenvalues --    2.47759   2.48751   2.49728   2.49874   2.51639
 Alpha virt. eigenvalues --    2.52338   2.53735   2.55289   2.58945   2.63285
 Alpha virt. eigenvalues --    2.65512   2.66479   2.66927   2.68386   2.70293
 Alpha virt. eigenvalues --    2.71640   2.72118   2.72814   2.73611   2.73660
 Alpha virt. eigenvalues --    2.74203   2.78276   2.82839   2.83677   2.85293
 Alpha virt. eigenvalues --    2.88244   2.89055   2.89289   2.93534   2.93621
 Alpha virt. eigenvalues --    2.97230   2.98921   3.10289   3.11773   3.15053
 Alpha virt. eigenvalues --    3.15698   3.55674   3.59800   3.59848   3.69315
 Alpha virt. eigenvalues --    3.69457   3.72868   3.75428   3.78162   3.89906
 Alpha virt. eigenvalues --    4.05460   4.08867   4.12873   4.15779
          Condensed to atoms (all electrons):
 Mulliken charges:
               1
     1  N   -0.169267
     2  C    0.105224
     3  C   -0.034722
     4  C   -0.096900
     5  C    0.119792
     6  C   -0.015032
     7  C    0.015715
     8  C    0.029993
     9  C    0.015714
    10  C   -0.015048
    11  C    0.009095
    12  C    0.061315
    13  C    0.119841
    14  C   -0.097061
    15  C   -0.034774
    16  C    0.105181
    17  N   -0.169288
    18  F   -0.227259
    19  B    0.199135
    20  F   -0.215528
    21  H    0.052400
    22  H    0.023786
    23  H    0.027887
    24  H    0.025959
    25  H    0.029318
    26  H    0.025961
    27  H    0.027911
    28  H    0.023780
    29  H    0.052384
    30  C    0.026347
    31  C   -0.040415
    32  C   -0.041617
    33  C    0.014687
    34  C    0.014332
    35  C   -0.005391
    36  H   -0.001189
    37  H    0.003282
    38  H    0.010395
    39  H    0.011980
    40  H    0.009859
    41  C    0.026511
    42  C   -0.041782
    43  C   -0.040532
    44  C    0.014387
    45  C    0.014742
    46  C   -0.005378
    47  H    0.003282
    48  H   -0.001194
    49  H    0.011961
    50  H    0.010380
    51  H    0.009843
 Sum of Mulliken charges =   0.00000
 Mulliken charges with hydrogens summed into heavy atoms:
               1
     1  N   -0.169267
     2  C    0.157624
     3  C   -0.034722
     4  C   -0.073114
     5  C    0.119792
     6  C    0.012855
     7  C    0.041674
     8  C    0.059311
     9  C    0.041675
    10  C    0.012863
    11  C    0.009095
    12  C    0.061315
    13  C    0.119841
    14  C   -0.073280
    15  C   -0.034774
    16  C    0.157565
    17  N   -0.169288
    18  F   -0.227259
    19  B    0.199135
    20  F   -0.215528
    30  C    0.026347
    31  C   -0.041605
    32  C   -0.038334
    33  C    0.025082
    34  C    0.026312
    35  C    0.004469
    41  C    0.026511
    42  C   -0.038500
    43  C   -0.041726
    44  C    0.026348
    45  C    0.025122
    46  C    0.004464
 Electronic spatial extent (au):  <R**2>=         178681.8482
 Charge=              0.0000 electrons
 Dipole moment (field-independent basis, Debye):
    X=              0.0633    Y=              5.8323    Z=              4.0228  Tot=              7.0854
 Quadrupole moment (field-independent basis, Debye-Ang):
   XX=           -156.3162   YY=           -244.1148   ZZ=           -197.7134
   XY=             68.0982   XZ=             46.7768   YZ=            -29.3650
 Traceless Quadrupole moment (field-independent basis, Debye-Ang):
   XX=             43.0652   YY=            -44.7333   ZZ=              1.6681
   XY=             68.0982   XZ=             46.7768   YZ=            -29.3650
 Octapole moment (field-independent basis, Debye-Ang**2):
  XXX=          -5537.1283  YYY=           4988.0786  ZZZ=           -204.4670  XYY=          -2866.3148
  XXY=           2069.0948  XXZ=            556.5119  XZZ=          -2326.7613  YZZ=           1652.7432
  YYZ=            153.3388  XYZ=           -340.6845
 Hexadecapole moment (field-independent basis, Debye-Ang**3):
 XXXX=        -145499.0540 YYYY=         -82704.2364 ZZZZ=          -1740.0177 XXXY=          54207.7952
 XXXZ=           6849.7161 YYYX=          58618.2679 YYYZ=             53.8943 ZZZX=          -2312.3428
 ZZZY=           1775.2445 XXYY=         -47142.1245 XXZZ=         -30348.1173 YYZZ=         -15138.7890
 XXYZ=          -3987.2411 YYXZ=           1787.9043 ZZXY=          19450.2742
 N-N= 2.854784024413D+03 E-N=-8.909315996651D+03  KE= 1.365510373139D+03

 **********************************************************************

            Population analysis using the CI one-particle density.

 **********************************************************************

          Condensed to atoms (all electrons):
 Mulliken charges:
               1
     1  N   -0.148933
     2  C    0.117507
     3  C    0.058125
     4  C   -0.168722
     5  C    0.226953
     6  C   -0.072873
     7  C    0.013862
     8  C   -0.032186
     9  C    0.013861
    10  C   -0.072863
    11  C   -0.000463
    12  C   -0.233198
    13  C    0.227225
    14  C   -0.168837
    15  C    0.058326
    16  C    0.117733
    17  N   -0.148861
    18  F   -0.227542
    19  B    0.195340
    20  F   -0.214926
    21  H    0.052183
    22  H    0.022925
    23  H    0.025561
    24  H    0.025928
    25  H    0.028771
    26  H    0.025929
    27  H    0.025587
    28  H    0.022923
    29  H    0.052168
    30  C    0.040214
    31  C   -0.020586
    32  C   -0.019107
    33  C    0.017287
    34  C    0.015335
    35  C    0.021606
    36  H   -0.001287
    37  H    0.003240
    38  H    0.010387
    39  H    0.011975
    40  H    0.010003
    41  C    0.040451
    42  C   -0.019175
    43  C   -0.020612
    44  C    0.015388
    45  C    0.017351
    46  C    0.021750
    47  H    0.003247
    48  H   -0.001288
    49  H    0.011956
    50  H    0.010372
    51  H    0.009988
 Sum of Mulliken charges =   0.00000
 Mulliken charges with hydrogens summed into heavy atoms:
               1
     1  N   -0.148933
     2  C    0.169690
     3  C    0.058125
     4  C   -0.145797
     5  C    0.226953
     6  C   -0.047312
     7  C    0.039790
     8  C   -0.003415
     9  C    0.039790
    10  C   -0.047276
    11  C   -0.000463
    12  C   -0.233198
    13  C    0.227225
    14  C   -0.145913
    15  C    0.058326
    16  C    0.169901
    17  N   -0.148861
    18  F   -0.227542
    19  B    0.195340
    20  F   -0.214926
    30  C    0.040214
    31  C   -0.021873
    32  C   -0.015866
    33  C    0.027673
    34  C    0.027310
    35  C    0.031609
    41  C    0.040451
    42  C   -0.015928
    43  C   -0.021900
    44  C    0.027344
    45  C    0.027724
    46  C    0.031737
 Electronic spatial extent (au):  <R**2>=         178574.7947
 Charge=              0.0000 electrons
 Dipole moment (field-independent basis, Debye):
    X=              0.0429    Y=             -1.6558    Z=              4.7560  Tot=              5.0362
 Quadrupole moment (field-independent basis, Debye-Ang):
   XX=           -121.6368   YY=           -136.0252   ZZ=           -196.4917
   XY=            -19.8106   XZ=             54.9426   YZ=            -38.1909
 Traceless Quadrupole moment (field-independent basis, Debye-Ang):
   XX=             29.7478   YY=             15.3593   ZZ=            -45.1071
   XY=            -19.8106   XZ=             54.9426   YZ=            -38.1909
 Octapole moment (field-independent basis, Debye-Ang**2):
  XXX=          -4305.0330  YYY=           3755.8656  ZZZ=           -200.5831  XYY=          -1596.1991
  XXY=            692.2347  XXZ=            688.8336  XZZ=          -2313.4608  YZZ=           1635.6623
  YYZ=            249.4970  XYZ=           -440.1045
 Hexadecapole moment (field-independent basis, Debye-Ang**3):
 XXXX=        -115212.9108 YYYY=         -69737.9596 ZZZZ=          -1730.9885 XXXY=          29923.3838
 XXXZ=           9308.2592 YYYX=          44132.8719 YYYZ=           -957.8686 ZZZX=          -2269.8922
 ZZZY=           1734.3118 XXYY=         -28850.0969 XXZZ=         -30119.5833 YYZZ=         -14946.1539
 XXYZ=          -5515.0150 YYXZ=           2876.7674 ZZXY=          19259.7789
 N-N= 2.854784024413D+03 E-N=-8.909466147423D+03  KE= 1.365536147279D+03

 **********************************************************************

            Population analysis using the CI density.

 **********************************************************************

          Condensed to atoms (all electrons):
 Mulliken charges:
               1
     1  N   -0.164300
     2  C    0.104695
     3  C   -0.016697
     4  C   -0.104805
     5  C    0.136658
     6  C   -0.042902
     7  C    0.013554
     8  C    0.002269
     9  C    0.013556
    10  C   -0.042886
    11  C    0.026425
    12  C    0.008443
    13  C    0.136767
    14  C   -0.104930
    15  C   -0.016732
    16  C    0.104748
    17  N   -0.164301
    18  F   -0.226818
    19  B    0.198145
    20  F   -0.213321
    21  H    0.052391
    22  H    0.021239
    23  H    0.009653
    24  H    0.013840
    25  H    0.013513
    26  H    0.013845
    27  H    0.009686
    28  H    0.021265
    29  H    0.052410
    30  C    0.020968
    31  C   -0.027785
    32  C   -0.028778
    33  C    0.016490
    34  C    0.015123
    35  C    0.006405
    36  H    0.008694
    37  H    0.010185
    38  H    0.016458
    39  H    0.017147
    40  H    0.017238
    41  C    0.021127
    42  C   -0.028888
    43  C   -0.027848
    44  C    0.015184
    45  C    0.016553
    46  C    0.006479
    47  H    0.010229
    48  H    0.008719
    49  H    0.017157
    50  H    0.016472
    51  H    0.017261
 Sum of Mulliken charges =   0.00000
 Mulliken charges with hydrogens summed into heavy atoms:
               1
     1  N   -0.164300
     2  C    0.157086
     3  C   -0.016697
     4  C   -0.083565
     5  C    0.136658
     6  C   -0.033249
     7  C    0.027393
     8  C    0.015782
     9  C    0.027401
    10  C   -0.033200
    11  C    0.026425
    12  C    0.008443
    13  C    0.136767
    14  C   -0.083664
    15  C   -0.016732
    16  C    0.157158
    17  N   -0.164301
    18  F   -0.226818
    19  B    0.198145
    20  F   -0.213321
    30  C    0.020968
    31  C   -0.019091
    32  C   -0.018593
    33  C    0.032948
    34  C    0.032270
    35  C    0.023643
    41  C    0.021127
    42  C   -0.018659
    43  C   -0.019129
    44  C    0.032341
    45  C    0.033025
    46  C    0.023740
 Electronic spatial extent (au):  <R**2>=         178614.8331
 Charge=              0.0000 electrons
 Dipole moment (field-independent basis, Debye):
    X=              0.0543    Y=              1.2660    Z=              4.7916  Tot=              4.9564
 Quadrupole moment (field-independent basis, Debye-Ang):
   XX=           -130.3995   YY=           -181.4846   ZZ=           -196.1227
   XY=             14.4561   XZ=             55.4829   YZ=            -37.5809
 Traceless Quadrupole moment (field-independent basis, Debye-Ang):
   XX=             38.9360   YY=            -12.1490   ZZ=            -26.7871
   XY=             14.4561   XZ=             55.4829   YZ=            -37.5809
 Octapole moment (field-independent basis, Debye-Ang**2):
  XXX=          -4618.6263  YYY=           4285.7764  ZZZ=           -199.4049  XYY=          -2130.0689
  XXY=           1178.1025  XXZ=            696.9765  XZZ=          -2309.1310  YZZ=           1633.7002
  YYZ=            236.9658  XYZ=           -434.0538
 Hexadecapole moment (field-independent basis, Debye-Ang**3):
 XXXX=        -122644.5598 YYYY=         -75249.5903 ZZZZ=          -1725.1024 XXXY=          37597.8006
 XXXZ=           9430.1576 YYYX=          50359.1991 YYYZ=           -794.9406 ZZZX=          -2256.5601
 ZZZY=           1725.6738 XXYY=         -35890.0492 XXZZ=         -30055.1663 YYZZ=         -14939.6739
 XXYZ=          -5447.8180 YYXZ=           2739.6753 ZZXY=          19236.4488
 N-N= 2.854784024413D+03 E-N=-8.909478141852D+03  KE= 1.365577036107D+03
 No NMR shielding tensors so no spin-rotation constants.
 Leave Link  601 at Wed Apr 22 12:07:40 2020, MaxMem= 12079595520 cpu:         9.2
 (Enter /scratch/prg/gaussian/bin/g09/l9999.exe)
 1\1\GINC-FIZIKA32-IB\FOpt\RM062X TD-FC\CC-pVDZ\C27H19B1F2N2\ROOT\22-Ap
 r-2020\0\\#p m062x cc-pvdz scrf=(cpcm,solvent=Toluene) td=(nstate=6,ro
 ot=1) opt=tight nosymm density=all int=ultrafine fchk\\BODIPY-phenyl w
 ith phenyls, initial R1\\0,1\N,12.9454948829,-9.174412372,-0.679182995
 8\C,14.0921122798,-9.7998423258,-0.4365603024\C,14.9211224615,-8.98055
 03347,0.3800296087\C,14.1818457021,-7.803356933,0.6271132316\C,12.9552
 043294,-7.921139219,-0.0377814985\C,10.5501961622,-4.9333483299,0.1062
 921324\C,10.5577505961,-3.5484620172,0.20396737\C,11.7627382944,-2.844
 4970352,0.2556445322\C,12.9642315069,-3.5513159428,0.1708877729\C,12.9
 658394319,-4.9362106577,0.07312461\C,11.7569121959,-5.674887527,0.0741
 547257\C,11.753822497,-7.1182094309,-0.0270179356\C,10.5506009456,-7.9
 183597553,-0.0065960767\C,9.3419219372,-7.7980560015,0.6899288509\C,8.
 5934914936,-8.9732647868,0.4612828485\C,9.3991421626,-9.7940532192,-0.
 3769358716\N,10.540638675,-9.1713299803,-0.6486960741\F,11.7293246198,
 -11.0662999198,-1.5573757471\B,11.7318377345,-9.6812913651,-1.49991970
 29\F,11.716586964,-9.1006692997,-2.7612794126\H,14.2798715539,-10.7814
 925614,-0.8639319604\H,14.4659430908,-6.9852404973,1.2800897798\H,9.59
 60379007,-5.4471701347,0.0164395308\H,9.6094166192,-3.0104237356,0.225
 776103\H,11.765088688,-1.757223779,0.3336301716\H,13.9140586113,-3.015
 5000587,0.1664398412\H,13.9159733703,-5.4523134157,-0.0427727559\H,9.0
 767240467,-6.9795212914,1.3502499951\H,9.1982647835,-10.7751676446,-0.
 7995357643\C,16.2619844158,-9.3115681563,0.8417454549\C,17.047392099,-
 8.3540704575,1.5116550576\C,16.8049370828,-10.595025938,0.6360278733\C
 ,18.3240165442,-8.6695868674,1.9609548687\C,18.0819548939,-10.90709834
 32,1.0862083226\C,18.848293822,-9.9471567276,1.751232809\H,16.65425083
 97,-7.3497317351,1.6714664089\H,16.2161277504,-11.3589163561,0.1274296
 814\H,18.9172164539,-7.9135113865,2.4762139372\H,18.4830201807,-11.907
 2521931,0.9196237065\H,19.8503274892,-10.1934392522,2.1035893744\C,7.2
 641616183,-9.3013920367,0.9570077347\C,6.7103012194,-10.5813005876,0.7
 58277824\C,6.50104155,-8.3446822005,1.653368832\C,5.4442860496,-10.890
 6646951,1.2402464143\C,5.235402531,-8.6574991169,2.1344924354\C,4.7000
 428714,-9.9314798765,1.9310502689\H,7.2818543888,-11.3446119702,0.2295
 130396\H,6.9027774979,-7.3431173267,1.8091080476\H,5.0345025026,-11.88
 80416186,1.0783274485\H,4.6594578012,-7.9020600972,2.6699005968\H,3.70
 65724654,-10.1755743698,2.3082938383\\Version=EM64L-G09RevD.01\HF=-137
 4.1406752\RMSD=3.195e-09\RMSF=1.258e-07\Dipole=0.0213664,0.4980683,1.8
 851795\Quadrupole=28.9479975,-9.0324712,-19.9155263,10.7477496,41.2501
 429,-27.9404551\PG=C01 [X(C27H19B1F2N2)]\\@


 KNOWLEDGE IS EXPERIMENT'S DAUGHTER.
 -- LEONARDO DA VINCI, IN "PENSIERI" CA. 1492
 Warning:  fchk array  ILSW element          12 has value       6710886400000 set to -1.
 Job cpu time:       0 days  0 hours 15 minutes  2.5 seconds.
 File lengths (MBytes):  RWF=    953 Int=      0 D2E=      0 Chk=     90 Scr=      1
 Normal termination of Gaussian 09 at Wed Apr 22 12:07:41 2020.
