 Entering Gaussian System, Link 0=/lustre1/prg/gaussian/bin/G16_C01_Linda_AVX2/g16/g16
 Initial command:
 /lustre1/prg/gaussian/bin/G16_C01_Linda_AVX2/g16/l1.exe "/lustre1/prg/webmo/data/webmo20/toliste/4438/scratch/Gau-1726349.inp" -scrdir="/lustre1/prg/webmo/data/webmo20/toliste/4438/scratch/"
 Default is to use a total of  32 processors:
                               32 via shared-memory
                                1 via Linda
 Entering Link 1 = /lustre1/prg/gaussian/bin/G16_C01_Linda_AVX2/g16/l1.exe PID=   1726350.
  
 Copyright (c) 1988-2019, Gaussian, Inc.  All Rights Reserved.
  
 This is part of the Gaussian(R) 16 program.  It is based on
 the Gaussian(R) 09 system (copyright 2009, Gaussian, Inc.),
 the Gaussian(R) 03 system (copyright 2003, Gaussian, Inc.),
 the Gaussian(R) 98 system (copyright 1998, Gaussian, Inc.),
 the Gaussian(R) 94 system (copyright 1995, Gaussian, Inc.),
 the Gaussian 92(TM) system (copyright 1992, Gaussian, Inc.),
 the Gaussian 90(TM) system (copyright 1990, Gaussian, Inc.),
 the Gaussian 88(TM) system (copyright 1988, Gaussian, Inc.),
 the Gaussian 86(TM) system (copyright 1986, Carnegie Mellon
 University), and the Gaussian 82(TM) system (copyright 1983,
 Carnegie Mellon University). Gaussian is a federally registered
 trademark of Gaussian, Inc.
  
 This software contains proprietary and confidential information,
 including trade secrets, belonging to Gaussian, Inc.
  
 This software is provided under written license and may be
 used, copied, transmitted, or stored only in accord with that
 written license.
  
 The following legend is applicable only to US Government
 contracts under FAR:
  
                    RESTRICTED RIGHTS LEGEND
  
 Use, reproduction and disclosure by the US Government is
 subject to restrictions as set forth in subparagraphs (a)
 and (c) of the Commercial Computer Software - Restricted
 Rights clause in FAR 52.227-19.
  
 Gaussian, Inc.
 340 Quinnipiac St., Bldg. 40, Wallingford CT 06492
  
  
 ---------------------------------------------------------------
 Warning -- This program may not be used in any manner that
 competes with the business of Gaussian, Inc. or will provide
 assistance to any competitor of Gaussian, Inc.  The licensee
 of this program is prohibited from giving any competitor of
 Gaussian, Inc. access to this program.  By using this program,
 the user acknowledges that Gaussian, Inc. is engaged in the
 business of creating and licensing software in the field of
 computational chemistry and represents and warrants to the
 licensee that it is not a competitor of Gaussian, Inc. and that
 it will not use this program in any manner prohibited above.
 ---------------------------------------------------------------
  

 Cite this work as:
 Gaussian 16, Revision C.01,
 M. J. Frisch, G. W. Trucks, H. B. Schlegel, G. E. Scuseria, 
 M. A. Robb, J. R. Cheeseman, G. Scalmani, V. Barone, 
 G. A. Petersson, H. Nakatsuji, X. Li, M. Caricato, A. V. Marenich, 
 J. Bloino, B. G. Janesko, R. Gomperts, B. Mennucci, H. P. Hratchian, 
 J. V. Ortiz, A. F. Izmaylov, J. L. Sonnenberg, D. Williams-Young, 
 F. Ding, F. Lipparini, F. Egidi, J. Goings, B. Peng, A. Petrone, 
 T. Henderson, D. Ranasinghe, V. G. Zakrzewski, J. Gao, N. Rega, 
 G. Zheng, W. Liang, M. Hada, M. Ehara, K. Toyota, R. Fukuda, 
 J. Hasegawa, M. Ishida, T. Nakajima, Y. Honda, O. Kitao, H. Nakai, 
 T. Vreven, K. Throssell, J. A. Montgomery, Jr., J. E. Peralta, 
 F. Ogliaro, M. J. Bearpark, J. J. Heyd, E. N. Brothers, K. N. Kudin, 
 V. N. Staroverov, T. A. Keith, R. Kobayashi, J. Normand, 
 K. Raghavachari, A. P. Rendell, J. C. Burant, S. S. Iyengar, 
 J. Tomasi, M. Cossi, J. M. Millam, M. Klene, C. Adamo, R. Cammi, 
 J. W. Ochterski, R. L. Martin, K. Morokuma, O. Farkas, 
 J. B. Foresman, and D. J. Fox, Gaussian, Inc., Wallingford CT, 2019.
 
 ******************************************
 Gaussian 16:  ES64L-G16RevC.01  3-Jul-2019
                 1-Feb-2022 
 ******************************************
 %LindaWorkers=fizika341,fizika342
 %chk=bodipy.chk
 SetLPE:  input flags=" -opt "Tsnet.Node.lindarsharg: ssh" "
 SetLPE:    new flags=" -opt "Tsnet.Node.lindarsharg: ssh" -opt 'Tsnet.Node.lindarsharg: ssh'  -nodelist 'fizika341.fizika.bullx fizika342.fizika.bullx' -env GAUSS_MDEF=49660559360 -env GAUSS_EXEDIR="/lustre1/prg/gaussian/bin/G16_C01_Linda_AVX2/g16/bsd:/lustre1/prg/gaussian/bin/G16_C01_Linda_AVX2/g16/private:/lustre1/prg/gaussian/bin/G16_C01_Linda_AVX2/g16""
 Will use up to    2 processors via Linda.
 ----------------------------------------------------------------------
 #p m062x cc-pvdz scrf=(cpcm,solvent=Acetone) td=(nstate=6,root=1) opt=
 tight nosymm density=all int=ultrafine fchk
 ----------------------------------------------------------------------
 1/7=10,18=20,19=15,26=6,38=1/1,3;
 2/9=110,12=2,15=1,17=6,18=5,40=1/2;
 3/5=16,11=9,25=1,30=1,70=2101,71=1,72=19,74=-55,75=-5/1,2,3,8;
 4//1;
 5/5=2,38=5,53=19/2;
 8/6=1,10=1,107=1,108=6/1;
 9/8=1,15=2,30=10,41=6,42=1,70=2/14;
 10/5=4,28=1,31=1/2;
 6/7=2,8=2,9=2,10=2,22=-2/1;
 7/12=6,13=5,14=1,30=1/1,2,3,16;
 1/7=10,18=20,19=15,26=6/3(2);
 2/9=110,15=1/2;
 99//99;
 2/9=110,15=1/2;
 3/5=16,11=9,25=1,30=1,70=2105,71=1,72=19,74=-55,75=-5/1,2,3,8;
 4/5=5,16=3,69=1/1;
 5/5=2,38=5,53=19/2;
 8/6=1,10=1,107=1,108=6/1;
 9/8=1,15=2,30=10,41=6,42=1,49=4,70=2/14;
 10/5=4,28=1,31=1/2;
 7/12=6,13=5,14=1,30=1/1,2,3,16;
 1/7=10,18=20,19=15,26=6/3(-8);
 2/9=110,15=1/2;
 6/7=2,8=2,9=2,10=2,22=-2/1;
 99/9=10/99;
 Leave Link    1 at Tue Feb  1 21:06:14 2022, MaxMem=           0 cpu:               2.4 elap:               0.1
 (Enter /lustre1/prg/gaussian/bin/G16_C01_Linda_AVX2/g16/l101.exe)
 --------------------------------------
 BDP-PP-phenyl, optimized S1 in toluene
 --------------------------------------
 Symbolic Z-matrix:
 Charge =  0 Multiplicity = 1
 N                     12.62367  -9.4506   -0.98875 
 C                     13.63767  -9.87487  -1.73835 
 C                     14.37617  -8.7627   -2.23263 
 C                     13.73264  -7.61155  -1.72688 
 C                     12.65731  -8.0399   -0.93462 
 C                     10.50976  -5.14439  -0.15971 
 C                     10.49579  -3.75399  -0.09963 
 C                     11.68762  -3.04389   0.05368 
 C                     12.89423  -3.73787   0.15058 
 C                     12.91292  -5.12869   0.0884 
 C                     11.72023  -5.856    -0.07284 
 C                     11.72103  -7.32481  -0.13704 
 C                     10.82157  -8.07464   0.67324 
 C                     9.97659  -7.67593   1.71821 
 C                     9.41416  -8.84334   2.28069 
 C                     9.94715  -9.93433   1.53585 
 N                     10.76389  -9.48104   0.58897 
 F                     11.94401  -11.52245   0.05941 
 B                     11.45987  -10.3404  -0.49036 
 F                     10.58086  -10.61516  -1.53887 
 H                     13.77189  -10.93767  -1.92473 
 H                     14.01281  -6.57782  -1.89604 
 H                     9.57792  -5.6946   -0.30006 
 H                     9.54788  -3.2208   -0.18178 
 H                     11.67562  -1.95458   0.10049 
 H                     13.82909  -3.19282   0.28674 
 H                     13.85632  -5.66434   0.20065 
 H                     9.84781  -6.65296   2.05644 
 H                     9.76341  -11.00134   1.63475 
 C                     15.54078  -8.83366  -3.09953 
 C                     16.09101  -7.6634   -3.6595 
 C                     16.15015  -10.06883  -3.40061 
 C                     17.20509  -7.7274   -4.48704 
 C                     17.26394  -10.12857  -4.22829 
 C                     17.7977  -8.95913  -4.77608 
 H                     15.63186  -6.69733  -3.44861 
 H                     15.75246  -10.9895  -2.97287 
 H                     17.6149  -6.81107  -4.91293 
 H                     17.72235  -11.09334  -4.44714 
 H                     18.67216  -9.00774  -5.42561 
 C                     8.48348  -8.94761   3.39182 
 C                     7.91628  -7.79086   3.96317 
 C                     8.12583  -10.20192   3.92744 
 C                     7.02798  -7.88625   5.027 
 C                     7.23719  -10.29295   4.99082 
 C                     6.68349  -9.13653   5.54668 
 H                     8.17032  -6.81053   3.55937 
 H                     8.55655  -11.11305   3.51144 
 H                     6.59767  -6.9801    5.45443 
 H                     6.97476  -11.27204   5.39242 
 H                     5.98586  -9.20981   6.38145 
 
 ITRead=  0  0  0  0  0  0  0  0  0  0  0  0  0  0  0  0  0  0  0  0
 ITRead=  0  0  0  0  0  0  0  0  0  0  0  0  0  0  0  0  0  0  0  0
 ITRead=  0  0  0  0  0  0  0  0  0  0  0
 MicOpt= -1 -1 -1 -1 -1 -1 -1 -1 -1 -1 -1 -1 -1 -1 -1 -1 -1 -1 -1 -1
 MicOpt= -1 -1 -1 -1 -1 -1 -1 -1 -1 -1 -1 -1 -1 -1 -1 -1 -1 -1 -1 -1
 MicOpt= -1 -1 -1 -1 -1 -1 -1 -1 -1 -1 -1
 NAtoms=     51 NQM=       51 NQMF=       0 NMMI=      0 NMMIF=      0
                NMic=       0 NMicF=      0.
                    Isotopes and Nuclear Properties:
 (Nuclear quadrupole moments (NQMom) in fm**2, nuclear magnetic moments (NMagM)
  in nuclear magnetons)

  Atom         1           2           3           4           5           6           7           8           9          10
 IAtWgt=          14          12          12          12          12          12          12          12          12          12
 AtmWgt=  14.0030740  12.0000000  12.0000000  12.0000000  12.0000000  12.0000000  12.0000000  12.0000000  12.0000000  12.0000000
 NucSpn=           2           0           0           0           0           0           0           0           0           0
 AtZEff=  -0.0000000  -0.0000000  -0.0000000  -0.0000000  -0.0000000  -0.0000000  -0.0000000  -0.0000000  -0.0000000  -0.0000000
 NQMom=    2.0440000   0.0000000   0.0000000   0.0000000   0.0000000   0.0000000   0.0000000   0.0000000   0.0000000   0.0000000
 NMagM=    0.4037610   0.0000000   0.0000000   0.0000000   0.0000000   0.0000000   0.0000000   0.0000000   0.0000000   0.0000000
 AtZNuc=   7.0000000   6.0000000   6.0000000   6.0000000   6.0000000   6.0000000   6.0000000   6.0000000   6.0000000   6.0000000

  Atom        11          12          13          14          15          16          17          18          19          20
 IAtWgt=          12          12          12          12          12          12          14          19          11          19
 AtmWgt=  12.0000000  12.0000000  12.0000000  12.0000000  12.0000000  12.0000000  14.0030740  18.9984032  11.0093053  18.9984032
 NucSpn=           0           0           0           0           0           0           2           1           3           1
 AtZEff=  -0.0000000  -0.0000000  -0.0000000  -0.0000000  -0.0000000  -0.0000000  -0.0000000  -0.0000000  -0.0000000  -0.0000000
 NQMom=    0.0000000   0.0000000   0.0000000   0.0000000   0.0000000   0.0000000   2.0440000   0.0000000   4.0590000   0.0000000
 NMagM=    0.0000000   0.0000000   0.0000000   0.0000000   0.0000000   0.0000000   0.4037610   2.6288670   2.6886370   2.6288670
 AtZNuc=   6.0000000   6.0000000   6.0000000   6.0000000   6.0000000   6.0000000   7.0000000   9.0000000   5.0000000   9.0000000

  Atom        21          22          23          24          25          26          27          28          29          30
 IAtWgt=           1           1           1           1           1           1           1           1           1          12
 AtmWgt=   1.0078250   1.0078250   1.0078250   1.0078250   1.0078250   1.0078250   1.0078250   1.0078250   1.0078250  12.0000000
 NucSpn=           1           1           1           1           1           1           1           1           1           0
 AtZEff=  -0.0000000  -0.0000000  -0.0000000  -0.0000000  -0.0000000  -0.0000000  -0.0000000  -0.0000000  -0.0000000  -0.0000000
 NQMom=    0.0000000   0.0000000   0.0000000   0.0000000   0.0000000   0.0000000   0.0000000   0.0000000   0.0000000   0.0000000
 NMagM=    2.7928460   2.7928460   2.7928460   2.7928460   2.7928460   2.7928460   2.7928460   2.7928460   2.7928460   0.0000000
 AtZNuc=   1.0000000   1.0000000   1.0000000   1.0000000   1.0000000   1.0000000   1.0000000   1.0000000   1.0000000   6.0000000

  Atom        31          32          33          34          35          36          37          38          39          40
 IAtWgt=          12          12          12          12          12           1           1           1           1           1
 AtmWgt=  12.0000000  12.0000000  12.0000000  12.0000000  12.0000000   1.0078250   1.0078250   1.0078250   1.0078250   1.0078250
 NucSpn=           0           0           0           0           0           1           1           1           1           1
 AtZEff=  -0.0000000  -0.0000000  -0.0000000  -0.0000000  -0.0000000  -0.0000000  -0.0000000  -0.0000000  -0.0000000  -0.0000000
 NQMom=    0.0000000   0.0000000   0.0000000   0.0000000   0.0000000   0.0000000   0.0000000   0.0000000   0.0000000   0.0000000
 NMagM=    0.0000000   0.0000000   0.0000000   0.0000000   0.0000000   2.7928460   2.7928460   2.7928460   2.7928460   2.7928460
 AtZNuc=   6.0000000   6.0000000   6.0000000   6.0000000   6.0000000   1.0000000   1.0000000   1.0000000   1.0000000   1.0000000

  Atom        41          42          43          44          45          46          47          48          49          50
 IAtWgt=          12          12          12          12          12          12           1           1           1           1
 AtmWgt=  12.0000000  12.0000000  12.0000000  12.0000000  12.0000000  12.0000000   1.0078250   1.0078250   1.0078250   1.0078250
 NucSpn=           0           0           0           0           0           0           1           1           1           1
 AtZEff=  -0.0000000  -0.0000000  -0.0000000  -0.0000000  -0.0000000  -0.0000000  -0.0000000  -0.0000000  -0.0000000  -0.0000000
 NQMom=    0.0000000   0.0000000   0.0000000   0.0000000   0.0000000   0.0000000   0.0000000   0.0000000   0.0000000   0.0000000
 NMagM=    0.0000000   0.0000000   0.0000000   0.0000000   0.0000000   0.0000000   2.7928460   2.7928460   2.7928460   2.7928460
 AtZNuc=   6.0000000   6.0000000   6.0000000   6.0000000   6.0000000   6.0000000   1.0000000   1.0000000   1.0000000   1.0000000

  Atom        51
 IAtWgt=           1
 AtmWgt=   1.0078250
 NucSpn=           1
 AtZEff=  -0.0000000
 NQMom=    0.0000000
 NMagM=    2.7928460
 AtZNuc=   1.0000000
 Leave Link  101 at Tue Feb  1 21:06:14 2022, MaxMem= 49660559360 cpu:              26.6 elap:               0.8
 (Enter /lustre1/prg/gaussian/bin/G16_C01_Linda_AVX2/g16/l103.exe)

 GradGradGradGradGradGradGradGradGradGradGradGradGradGradGradGradGradGrad
 Berny optimization.
 Initialization pass.
                           ----------------------------
                           !    Initial Parameters    !
                           ! (Angstroms and Degrees)  !
 --------------------------                            --------------------------
 ! Name  Definition              Value          Derivative Info.                !
 --------------------------------------------------------------------------------
 ! R1    R(1,2)                  1.3305         estimate D2E/DX2                !
 ! R2    R(1,5)                  1.4121         estimate D2E/DX2                !
 ! R3    R(1,19)                 1.5474         estimate D2E/DX2                !
 ! R4    R(2,3)                  1.4236         estimate D2E/DX2                !
 ! R5    R(2,21)                 1.0873         estimate D2E/DX2                !
 ! R6    R(3,4)                  1.4125         estimate D2E/DX2                !
 ! R7    R(3,30)                 1.4536         estimate D2E/DX2                !
 ! R8    R(4,5)                  1.4027         estimate D2E/DX2                !
 ! R9    R(4,22)                 1.0843         estimate D2E/DX2                !
 ! R10   R(5,12)                 1.4227         estimate D2E/DX2                !
 ! R11   R(6,7)                  1.3918         estimate D2E/DX2                !
 ! R12   R(6,11)                 1.4068         estimate D2E/DX2                !
 ! R13   R(6,23)                 1.0912         estimate D2E/DX2                !
 ! R14   R(7,8)                  1.3958         estimate D2E/DX2                !
 ! R15   R(7,24)                 1.0907         estimate D2E/DX2                !
 ! R16   R(8,9)                  1.3953         estimate D2E/DX2                !
 ! R17   R(8,25)                 1.0904         estimate D2E/DX2                !
 ! R18   R(9,10)                 1.3923         estimate D2E/DX2                !
 ! R19   R(9,26)                 1.0907         estimate D2E/DX2                !
 ! R20   R(10,11)                1.4062         estimate D2E/DX2                !
 ! R21   R(10,27)                1.0907         estimate D2E/DX2                !
 ! R22   R(11,12)                1.4702         estimate D2E/DX2                !
 ! R23   R(12,13)                1.424          estimate D2E/DX2                !
 ! R24   R(13,14)                1.4018         estimate D2E/DX2                !
 ! R25   R(13,17)                1.4101         estimate D2E/DX2                !
 ! R26   R(14,15)                1.4126         estimate D2E/DX2                !
 ! R27   R(14,28)                1.0851         estimate D2E/DX2                !
 ! R28   R(15,16)                1.4245         estimate D2E/DX2                !
 ! R29   R(15,41)                1.4532         estimate D2E/DX2                !
 ! R30   R(16,17)                1.3301         estimate D2E/DX2                !
 ! R31   R(16,29)                1.0872         estimate D2E/DX2                !
 ! R32   R(17,19)                1.5453         estimate D2E/DX2                !
 ! R33   R(18,19)                1.3906         estimate D2E/DX2                !
 ! R34   R(19,20)                1.3955         estimate D2E/DX2                !
 ! R35   R(30,31)                1.4092         estimate D2E/DX2                !
 ! R36   R(30,32)                1.4098         estimate D2E/DX2                !
 ! R37   R(31,33)                1.3893         estimate D2E/DX2                !
 ! R38   R(31,36)                1.0902         estimate D2E/DX2                !
 ! R39   R(32,34)                1.3889         estimate D2E/DX2                !
 ! R40   R(32,37)                1.0903         estimate D2E/DX2                !
 ! R41   R(33,35)                1.3971         estimate D2E/DX2                !
 ! R42   R(33,38)                1.0904         estimate D2E/DX2                !
 ! R43   R(34,35)                1.3973         estimate D2E/DX2                !
 ! R44   R(34,39)                1.0903         estimate D2E/DX2                !
 ! R45   R(35,40)                1.0904         estimate D2E/DX2                !
 ! R46   R(41,42)                1.4093         estimate D2E/DX2                !
 ! R47   R(41,43)                1.41           estimate D2E/DX2                !
 ! R48   R(42,44)                1.3892         estimate D2E/DX2                !
 ! R49   R(42,47)                1.0902         estimate D2E/DX2                !
 ! R50   R(43,45)                1.3888         estimate D2E/DX2                !
 ! R51   R(43,48)                1.0903         estimate D2E/DX2                !
 ! R52   R(44,46)                1.3971         estimate D2E/DX2                !
 ! R53   R(44,49)                1.0904         estimate D2E/DX2                !
 ! R54   R(45,46)                1.3975         estimate D2E/DX2                !
 ! R55   R(45,50)                1.0903         estimate D2E/DX2                !
 ! R56   R(46,51)                1.0904         estimate D2E/DX2                !
 ! A1    A(2,1,5)              108.7844         estimate D2E/DX2                !
 ! A2    A(2,1,19)             124.8401         estimate D2E/DX2                !
 ! A3    A(5,1,19)             125.4509         estimate D2E/DX2                !
 ! A4    A(1,2,3)              109.9901         estimate D2E/DX2                !
 ! A5    A(1,2,21)             120.1558         estimate D2E/DX2                !
 ! A6    A(3,2,21)             129.7966         estimate D2E/DX2                !
 ! A7    A(2,3,4)              106.0238         estimate D2E/DX2                !
 ! A8    A(2,3,30)             125.7723         estimate D2E/DX2                !
 ! A9    A(4,3,30)             128.1969         estimate D2E/DX2                !
 ! A10   A(3,4,5)              107.6164         estimate D2E/DX2                !
 ! A11   A(3,4,22)             127.1137         estimate D2E/DX2                !
 ! A12   A(5,4,22)             125.2637         estimate D2E/DX2                !
 ! A13   A(1,5,4)              107.5586         estimate D2E/DX2                !
 ! A14   A(1,5,12)             120.5253         estimate D2E/DX2                !
 ! A15   A(4,5,12)             131.8875         estimate D2E/DX2                !
 ! A16   A(7,6,11)             120.7505         estimate D2E/DX2                !
 ! A17   A(7,6,23)             120.0466         estimate D2E/DX2                !
 ! A18   A(11,6,23)            119.186          estimate D2E/DX2                !
 ! A19   A(6,7,8)              120.2926         estimate D2E/DX2                !
 ! A20   A(6,7,24)             119.5939         estimate D2E/DX2                !
 ! A21   A(8,7,24)             120.1114         estimate D2E/DX2                !
 ! A22   A(7,8,9)              119.5378         estimate D2E/DX2                !
 ! A23   A(7,8,25)             120.2359         estimate D2E/DX2                !
 ! A24   A(9,8,25)             120.226          estimate D2E/DX2                !
 ! A25   A(8,9,10)             120.353          estimate D2E/DX2                !
 ! A26   A(8,9,26)             120.0879         estimate D2E/DX2                !
 ! A27   A(10,9,26)            119.5557         estimate D2E/DX2                !
 ! A28   A(9,10,11)            120.689          estimate D2E/DX2                !
 ! A29   A(9,10,27)            119.8413         estimate D2E/DX2                !
 ! A30   A(11,10,27)           119.4347         estimate D2E/DX2                !
 ! A31   A(6,11,10)            118.3745         estimate D2E/DX2                !
 ! A32   A(6,11,12)            120.2063         estimate D2E/DX2                !
 ! A33   A(10,11,12)           121.4164         estimate D2E/DX2                !
 ! A34   A(5,12,11)            121.8017         estimate D2E/DX2                !
 ! A35   A(5,12,13)            118.0346         estimate D2E/DX2                !
 ! A36   A(11,12,13)           120.0574         estimate D2E/DX2                !
 ! A37   A(12,13,14)           130.9316         estimate D2E/DX2                !
 ! A38   A(12,13,17)           121.132          estimate D2E/DX2                !
 ! A39   A(14,13,17)           107.6729         estimate D2E/DX2                !
 ! A40   A(13,14,15)           107.5641         estimate D2E/DX2                !
 ! A41   A(13,14,28)           124.8938         estimate D2E/DX2                !
 ! A42   A(15,14,28)           127.4242         estimate D2E/DX2                !
 ! A43   A(14,15,16)           106.0071         estimate D2E/DX2                !
 ! A44   A(14,15,41)           128.2249         estimate D2E/DX2                !
 ! A45   A(16,15,41)           125.7679         estimate D2E/DX2                !
 ! A46   A(15,16,17)           109.937          estimate D2E/DX2                !
 ! A47   A(15,16,29)           129.8552         estimate D2E/DX2                !
 ! A48   A(17,16,29)           120.1986         estimate D2E/DX2                !
 ! A49   A(13,17,16)           108.8128         estimate D2E/DX2                !
 ! A50   A(13,17,19)           125.3089         estimate D2E/DX2                !
 ! A51   A(16,17,19)           125.7522         estimate D2E/DX2                !
 ! A52   A(1,19,17)            104.1176         estimate D2E/DX2                !
 ! A53   A(1,19,18)            110.748          estimate D2E/DX2                !
 ! A54   A(1,19,20)            110.1778         estimate D2E/DX2                !
 ! A55   A(17,19,18)           110.6943         estimate D2E/DX2                !
 ! A56   A(17,19,20)           110.5236         estimate D2E/DX2                !
 ! A57   A(18,19,20)           110.424          estimate D2E/DX2                !
 ! A58   A(3,30,31)            120.6159         estimate D2E/DX2                !
 ! A59   A(3,30,32)            121.0935         estimate D2E/DX2                !
 ! A60   A(31,30,32)           118.2905         estimate D2E/DX2                !
 ! A61   A(30,31,33)           120.7671         estimate D2E/DX2                !
 ! A62   A(30,31,36)           119.6417         estimate D2E/DX2                !
 ! A63   A(33,31,36)           119.5887         estimate D2E/DX2                !
 ! A64   A(30,32,34)           120.7671         estimate D2E/DX2                !
 ! A65   A(30,32,37)           119.8921         estimate D2E/DX2                !
 ! A66   A(34,32,37)           119.3377         estimate D2E/DX2                !
 ! A67   A(31,33,35)           120.2646         estimate D2E/DX2                !
 ! A68   A(31,33,38)           119.6911         estimate D2E/DX2                !
 ! A69   A(35,33,38)           120.0441         estimate D2E/DX2                !
 ! A70   A(32,34,35)           120.2594         estimate D2E/DX2                !
 ! A71   A(32,34,39)           119.6574         estimate D2E/DX2                !
 ! A72   A(35,34,39)           120.083          estimate D2E/DX2                !
 ! A73   A(33,35,34)           119.6513         estimate D2E/DX2                !
 ! A74   A(33,35,40)           120.1802         estimate D2E/DX2                !
 ! A75   A(34,35,40)           120.1685         estimate D2E/DX2                !
 ! A76   A(15,41,42)           120.5873         estimate D2E/DX2                !
 ! A77   A(15,41,43)           121.114          estimate D2E/DX2                !
 ! A78   A(42,41,43)           118.2985         estimate D2E/DX2                !
 ! A79   A(41,42,44)           120.7595         estimate D2E/DX2                !
 ! A80   A(41,42,47)           119.6104         estimate D2E/DX2                !
 ! A81   A(44,42,47)           119.6275         estimate D2E/DX2                !
 ! A82   A(41,43,45)           120.7621         estimate D2E/DX2                !
 ! A83   A(41,43,48)           119.8854         estimate D2E/DX2                !
 ! A84   A(45,43,48)           119.3499         estimate D2E/DX2                !
 ! A85   A(42,44,46)           120.2618         estimate D2E/DX2                !
 ! A86   A(42,44,49)           119.6999         estimate D2E/DX2                !
 ! A87   A(46,44,49)           120.0381         estimate D2E/DX2                !
 ! A88   A(43,45,46)           120.255          estimate D2E/DX2                !
 ! A89   A(43,45,50)           119.6638         estimate D2E/DX2                !
 ! A90   A(46,45,50)           120.081          estimate D2E/DX2                !
 ! A91   A(44,46,45)           119.663          estimate D2E/DX2                !
 ! A92   A(44,46,51)           120.1768         estimate D2E/DX2                !
 ! A93   A(45,46,51)           120.1602         estimate D2E/DX2                !
 ! D1    D(5,1,2,3)             -0.9446         estimate D2E/DX2                !
 ! D2    D(5,1,2,21)          -178.4487         estimate D2E/DX2                !
 ! D3    D(19,1,2,3)           168.5315         estimate D2E/DX2                !
 ! D4    D(19,1,2,21)           -8.9726         estimate D2E/DX2                !
 ! D5    D(2,1,5,4)              1.6022         estimate D2E/DX2                !
 ! D6    D(2,1,5,12)          -176.6754         estimate D2E/DX2                !
 ! D7    D(19,1,5,4)          -167.7937         estimate D2E/DX2                !
 ! D8    D(19,1,5,12)           13.9287         estimate D2E/DX2                !
 ! D9    D(2,1,19,17)          166.759          estimate D2E/DX2                !
 ! D10   D(2,1,19,18)           47.7508         estimate D2E/DX2                !
 ! D11   D(2,1,19,20)          -74.7138         estimate D2E/DX2                !
 ! D12   D(5,1,19,17)          -25.4964         estimate D2E/DX2                !
 ! D13   D(5,1,19,18)         -144.5047         estimate D2E/DX2                !
 ! D14   D(5,1,19,20)           93.0308         estimate D2E/DX2                !
 ! D15   D(1,2,3,4)             -0.0695         estimate D2E/DX2                !
 ! D16   D(1,2,3,30)          -179.1701         estimate D2E/DX2                !
 ! D17   D(21,2,3,4)           177.1215         estimate D2E/DX2                !
 ! D18   D(21,2,3,30)           -1.9791         estimate D2E/DX2                !
 ! D19   D(2,3,4,5)              1.0555         estimate D2E/DX2                !
 ! D20   D(2,3,4,22)          -179.8235         estimate D2E/DX2                !
 ! D21   D(30,3,4,5)          -179.873          estimate D2E/DX2                !
 ! D22   D(30,3,4,22)           -0.7521         estimate D2E/DX2                !
 ! D23   D(2,3,30,31)          172.0844         estimate D2E/DX2                !
 ! D24   D(2,3,30,32)           -8.0225         estimate D2E/DX2                !
 ! D25   D(4,3,30,31)           -6.8156         estimate D2E/DX2                !
 ! D26   D(4,3,30,32)          173.0775         estimate D2E/DX2                !
 ! D27   D(3,4,5,1)             -1.6216         estimate D2E/DX2                !
 ! D28   D(3,4,5,12)           176.3852         estimate D2E/DX2                !
 ! D29   D(22,4,5,1)           179.2369         estimate D2E/DX2                !
 ! D30   D(22,4,5,12)           -2.7562         estimate D2E/DX2                !
 ! D31   D(1,5,12,11)         -179.2479         estimate D2E/DX2                !
 ! D32   D(1,5,12,13)            4.4999         estimate D2E/DX2                !
 ! D33   D(4,5,12,11)            2.9582         estimate D2E/DX2                !
 ! D34   D(4,5,12,13)         -173.294          estimate D2E/DX2                !
 ! D35   D(11,6,7,8)            -0.2557         estimate D2E/DX2                !
 ! D36   D(11,6,7,24)          179.2159         estimate D2E/DX2                !
 ! D37   D(23,6,7,8)          -178.7517         estimate D2E/DX2                !
 ! D38   D(23,6,7,24)            0.72           estimate D2E/DX2                !
 ! D39   D(7,6,11,10)            0.5753         estimate D2E/DX2                !
 ! D40   D(7,6,11,12)          179.9715         estimate D2E/DX2                !
 ! D41   D(23,6,11,10)         179.0841         estimate D2E/DX2                !
 ! D42   D(23,6,11,12)          -1.5198         estimate D2E/DX2                !
 ! D43   D(6,7,8,9)             -0.1972         estimate D2E/DX2                !
 ! D44   D(6,7,8,25)           179.9907         estimate D2E/DX2                !
 ! D45   D(24,7,8,9)          -179.6662         estimate D2E/DX2                !
 ! D46   D(24,7,8,25)            0.5217         estimate D2E/DX2                !
 ! D47   D(7,8,9,10)             0.3188         estimate D2E/DX2                !
 ! D48   D(7,8,9,26)          -179.0098         estimate D2E/DX2                !
 ! D49   D(25,8,9,10)         -179.869          estimate D2E/DX2                !
 ! D50   D(25,8,9,26)            0.8023         estimate D2E/DX2                !
 ! D51   D(8,9,10,11)            0.0113         estimate D2E/DX2                !
 ! D52   D(8,9,10,27)         -177.8234         estimate D2E/DX2                !
 ! D53   D(26,9,10,11)         179.3435         estimate D2E/DX2                !
 ! D54   D(26,9,10,27)           1.5088         estimate D2E/DX2                !
 ! D55   D(9,10,11,6)           -0.4532         estimate D2E/DX2                !
 ! D56   D(9,10,11,12)        -179.8418         estimate D2E/DX2                !
 ! D57   D(27,10,11,6)         177.3902         estimate D2E/DX2                !
 ! D58   D(27,10,11,12)         -1.9984         estimate D2E/DX2                !
 ! D59   D(6,11,12,5)          135.1519         estimate D2E/DX2                !
 ! D60   D(6,11,12,13)         -48.6702         estimate D2E/DX2                !
 ! D61   D(10,11,12,5)         -45.4706         estimate D2E/DX2                !
 ! D62   D(10,11,12,13)        130.7072         estimate D2E/DX2                !
 ! D63   D(5,12,13,14)         166.9617         estimate D2E/DX2                !
 ! D64   D(5,12,13,17)          -6.3662         estimate D2E/DX2                !
 ! D65   D(11,12,13,14)         -9.3583         estimate D2E/DX2                !
 ! D66   D(11,12,13,17)        177.3138         estimate D2E/DX2                !
 ! D67   D(12,13,14,15)       -173.3937         estimate D2E/DX2                !
 ! D68   D(12,13,14,28)          2.9034         estimate D2E/DX2                !
 ! D69   D(17,13,14,15)          0.6148         estimate D2E/DX2                !
 ! D70   D(17,13,14,28)        176.912          estimate D2E/DX2                !
 ! D71   D(12,13,17,16)        173.898          estimate D2E/DX2                !
 ! D72   D(12,13,17,19)         -9.9968         estimate D2E/DX2                !
 ! D73   D(14,13,17,16)         -0.8161         estimate D2E/DX2                !
 ! D74   D(14,13,17,19)        175.2891         estimate D2E/DX2                !
 ! D75   D(13,14,15,16)         -0.2081         estimate D2E/DX2                !
 ! D76   D(13,14,15,41)        179.6571         estimate D2E/DX2                !
 ! D77   D(28,14,15,16)       -176.3836         estimate D2E/DX2                !
 ! D78   D(28,14,15,41)          3.4816         estimate D2E/DX2                !
 ! D79   D(14,15,16,17)         -0.3029         estimate D2E/DX2                !
 ! D80   D(14,15,16,29)       -179.1762         estimate D2E/DX2                !
 ! D81   D(41,15,16,17)        179.8277         estimate D2E/DX2                !
 ! D82   D(41,15,16,29)          0.9544         estimate D2E/DX2                !
 ! D83   D(14,15,41,42)          6.8262         estimate D2E/DX2                !
 ! D84   D(14,15,41,43)       -173.072          estimate D2E/DX2                !
 ! D85   D(16,15,41,42)       -173.3335         estimate D2E/DX2                !
 ! D86   D(16,15,41,43)          6.7683         estimate D2E/DX2                !
 ! D87   D(15,16,17,13)          0.6924         estimate D2E/DX2                !
 ! D88   D(15,16,17,19)       -175.3913         estimate D2E/DX2                !
 ! D89   D(29,16,17,13)        179.6916         estimate D2E/DX2                !
 ! D90   D(29,16,17,19)          3.608          estimate D2E/DX2                !
 ! D91   D(13,17,19,1)          23.4566         estimate D2E/DX2                !
 ! D92   D(13,17,19,18)        142.5014         estimate D2E/DX2                !
 ! D93   D(13,17,19,20)        -94.8334         estimate D2E/DX2                !
 ! D94   D(16,17,19,1)        -161.0874         estimate D2E/DX2                !
 ! D95   D(16,17,19,18)        -42.0426         estimate D2E/DX2                !
 ! D96   D(16,17,19,20)         80.6225         estimate D2E/DX2                !
 ! D97   D(3,30,31,33)         179.9151         estimate D2E/DX2                !
 ! D98   D(3,30,31,36)          -0.6586         estimate D2E/DX2                !
 ! D99   D(32,30,31,33)          0.0191         estimate D2E/DX2                !
 ! D100  D(32,30,31,36)        179.4454         estimate D2E/DX2                !
 ! D101  D(3,30,32,34)        -179.9075         estimate D2E/DX2                !
 ! D102  D(3,30,32,37)          -0.5506         estimate D2E/DX2                !
 ! D103  D(31,30,32,34)         -0.012          estimate D2E/DX2                !
 ! D104  D(31,30,32,37)        179.3449         estimate D2E/DX2                !
 ! D105  D(30,31,33,35)         -0.0161         estimate D2E/DX2                !
 ! D106  D(30,31,33,38)        179.846          estimate D2E/DX2                !
 ! D107  D(36,31,33,35)       -179.4427         estimate D2E/DX2                !
 ! D108  D(36,31,33,38)          0.4193         estimate D2E/DX2                !
 ! D109  D(30,32,34,35)          0.0018         estimate D2E/DX2                !
 ! D110  D(30,32,34,39)        179.848          estimate D2E/DX2                !
 ! D111  D(37,32,34,35)       -179.3586         estimate D2E/DX2                !
 ! D112  D(37,32,34,39)          0.4876         estimate D2E/DX2                !
 ! D113  D(31,33,35,34)          0.0055         estimate D2E/DX2                !
 ! D114  D(31,33,35,40)       -179.9884         estimate D2E/DX2                !
 ! D115  D(38,33,35,34)       -179.8561         estimate D2E/DX2                !
 ! D116  D(38,33,35,40)          0.1501         estimate D2E/DX2                !
 ! D117  D(32,34,35,33)          0.0016         estimate D2E/DX2                !
 ! D118  D(32,34,35,40)        179.9955         estimate D2E/DX2                !
 ! D119  D(39,34,35,33)       -179.8439         estimate D2E/DX2                !
 ! D120  D(39,34,35,40)          0.1499         estimate D2E/DX2                !
 ! D121  D(15,41,42,44)       -179.8873         estimate D2E/DX2                !
 ! D122  D(15,41,42,47)          0.6998         estimate D2E/DX2                !
 ! D123  D(43,41,42,44)          0.0137         estimate D2E/DX2                !
 ! D124  D(43,41,42,47)       -179.3992         estimate D2E/DX2                !
 ! D125  D(15,41,43,45)        179.901          estimate D2E/DX2                !
 ! D126  D(15,41,43,48)          0.4847         estimate D2E/DX2                !
 ! D127  D(42,41,43,45)          0.0005         estimate D2E/DX2                !
 ! D128  D(42,41,43,48)       -179.4158         estimate D2E/DX2                !
 ! D129  D(41,42,44,46)         -0.0123         estimate D2E/DX2                !
 ! D130  D(41,42,44,49)       -179.8643         estimate D2E/DX2                !
 ! D131  D(47,42,44,46)        179.4005         estimate D2E/DX2                !
 ! D132  D(47,42,44,49)         -0.4515         estimate D2E/DX2                !
 ! D133  D(41,43,45,46)         -0.0161         estimate D2E/DX2                !
 ! D134  D(41,43,45,50)       -179.8681         estimate D2E/DX2                !
 ! D135  D(48,43,45,46)        179.4033         estimate D2E/DX2                !
 ! D136  D(48,43,45,50)         -0.4486         estimate D2E/DX2                !
 ! D137  D(42,44,46,45)         -0.0034         estimate D2E/DX2                !
 ! D138  D(42,44,46,51)       -179.9778         estimate D2E/DX2                !
 ! D139  D(49,44,46,45)        179.8481         estimate D2E/DX2                !
 ! D140  D(49,44,46,51)         -0.1263         estimate D2E/DX2                !
 ! D141  D(43,45,46,44)          0.0176         estimate D2E/DX2                !
 ! D142  D(43,45,46,51)        179.9919         estimate D2E/DX2                !
 ! D143  D(50,45,46,44)        179.8689         estimate D2E/DX2                !
 ! D144  D(50,45,46,51)         -0.1568         estimate D2E/DX2                !
 --------------------------------------------------------------------------------
 Trust Radius=3.00D-01 FncErr=5.00D-06 GrdErr=5.00D-06 EigMax=2.50D+02 EigMin=1.00D-04
 Number of steps in this run=    303 maximum allowed number of steps=    306.
 GradGradGradGradGradGradGradGradGradGradGradGradGradGradGradGradGradGrad

 Leave Link  103 at Tue Feb  1 21:06:15 2022, MaxMem= 49660559360 cpu:               1.1 elap:               0.0
 (Enter /lustre1/prg/gaussian/bin/G16_C01_Linda_AVX2/g16/l202.exe)
 Symmetry turned off by external request.
 Stoichiometry    C27H19BF2N2
 Framework group  C1[X(C27H19BF2N2)]
 Deg. of freedom   147
 Full point group                 C1      NOp   1
                          Input orientation:                          
 ---------------------------------------------------------------------
 Center     Atomic      Atomic             Coordinates (Angstroms)
 Number     Number       Type             X           Y           Z
 ---------------------------------------------------------------------
      1          7           0       12.623665   -9.450596   -0.988748
      2          6           0       13.637669   -9.874871   -1.738346
      3          6           0       14.376168   -8.762702   -2.232625
      4          6           0       13.732638   -7.611554   -1.726879
      5          6           0       12.657312   -8.039898   -0.934616
      6          6           0       10.509762   -5.144387   -0.159713
      7          6           0       10.495791   -3.753987   -0.099626
      8          6           0       11.687620   -3.043892    0.053677
      9          6           0       12.894234   -3.737873    0.150576
     10          6           0       12.912919   -5.128692    0.088397
     11          6           0       11.720226   -5.855997   -0.072835
     12          6           0       11.721025   -7.324811   -0.137039
     13          6           0       10.821572   -8.074644    0.673244
     14          6           0        9.976586   -7.675934    1.718207
     15          6           0        9.414160   -8.843339    2.280691
     16          6           0        9.947154   -9.934331    1.535849
     17          7           0       10.763890   -9.481042    0.588972
     18          9           0       11.944013  -11.522445    0.059407
     19          5           0       11.459866  -10.340401   -0.490356
     20          9           0       10.580863  -10.615157   -1.538872
     21          1           0       13.771891  -10.937673   -1.924725
     22          1           0       14.012812   -6.577819   -1.896038
     23          1           0        9.577919   -5.694603   -0.300059
     24          1           0        9.547882   -3.220804   -0.181776
     25          1           0       11.675617   -1.954578    0.100490
     26          1           0       13.829087   -3.192818    0.286742
     27          1           0       13.856322   -5.664336    0.200652
     28          1           0        9.847805   -6.652964    2.056443
     29          1           0        9.763407  -11.001343    1.634748
     30          6           0       15.540785   -8.833660   -3.099530
     31          6           0       16.091008   -7.663397   -3.659495
     32          6           0       16.150150  -10.068828   -3.400611
     33          6           0       17.205089   -7.727397   -4.487043
     34          6           0       17.263943  -10.128573   -4.228293
     35          6           0       17.797695   -8.959125   -4.776082
     36          1           0       15.631857   -6.697333   -3.448613
     37          1           0       15.752457  -10.989504   -2.972869
     38          1           0       17.614895   -6.811069   -4.912932
     39          1           0       17.722348  -11.093338   -4.447137
     40          1           0       18.672159   -9.007739   -5.425605
     41          6           0        8.483480   -8.947606    3.391821
     42          6           0        7.916284   -7.790860    3.963171
     43          6           0        8.125834  -10.201918    3.927436
     44          6           0        7.027976   -7.886250    5.026999
     45          6           0        7.237192  -10.292953    4.990815
     46          6           0        6.683492   -9.136533    5.546677
     47          1           0        8.170317   -6.810533    3.559370
     48          1           0        8.556554  -11.113054    3.511443
     49          1           0        6.597672   -6.980098    5.454432
     50          1           0        6.974761  -11.272035    5.392417
     51          1           0        5.985856   -9.209812    6.381445
 ---------------------------------------------------------------------
 Rotational constants (GHZ):           0.2352065           0.0719671           0.0571013
 Leave Link  202 at Tue Feb  1 21:06:15 2022, MaxMem= 49660559360 cpu:               0.4 elap:               0.0
 (Enter /lustre1/prg/gaussian/bin/G16_C01_Linda_AVX2/g16/l301.exe)
 Standard basis: CC-pVDZ (5D, 7F)
 Ernie: Thresh=  0.10000D-02 Tol=  0.10000D-05 Strict=F.
 Ernie:  64 primitive shells out of 799 were deleted.
   543 basis functions,  1189 primitive gaussians,   575 cartesian basis functions
   109 alpha electrons      109 beta electrons
       nuclear repulsion energy      2847.5736827302 Hartrees.
 IExCor= 4336 DFT=T Ex+Corr=M062X ExCW=0 ScaHFX=  0.540000
 ScaDFX=  1.000000  1.000000  1.000000  1.000000 ScalE2=  1.000000  1.000000
 IRadAn=      5 IRanWt=     -1 IRanGd=            0 ICorTp=0 IEmpDi=  4
 NAtoms=   51 NActive=   51 NUniq=   51 SFac= 1.00D+00 NAtFMM=   60 NAOKFM=F Big=F
 Integral buffers will be    131072 words long.
 Regular integral format.
 Two-electron integral symmetry is turned off.
 ------------------------------------------------------------------------------
 Polarizable Continuum Model (PCM)
 =================================
 Model                : C-PCM.
 Atomic radii         : UFF (Universal Force Field).
 Polarization charges : Total charges.
 Charge compensation  : None.
 Solution method      : On-the-fly selection.
 Cavity type          : Scaled VdW (van der Waals Surface) (Alpha=1.100).
 Cavity algorithm     : GePol (No added spheres)
                        Default sphere list used, NSphG=   51.
                        Lebedev-Laikov grids with approx.  5.0 points / Ang**2.
                        Smoothing algorithm: York/Karplus (Gamma=1.0000).
                        Polarization charges: spherical gaussians, with
                                              point-specific exponents (IZeta= 3).
                        Self-potential: point-specific (ISelfS= 7).
                        Self-field    : sphere-specific E.n sum rule (ISelfD= 2).
 1st derivatives      : Analytical E(r).r(x)/FMM algorithm (CHGder, D1EAlg=3).
                        Cavity 1st derivative terms included.
 Solvent              : Acetone, Eps=  20.493000 Eps(inf)=   1.846337
 ------------------------------------------------------------------------------
 GePol: Number of generator spheres                  =      51
 GePol: Total number of spheres                      =      51
 GePol: Number of exposed spheres                    =      51 (100.00%)
 GePol: Number of points                             =    3807
 GePol: Average weight of points                     =       0.13
 GePol: Minimum weight of points                     =   0.22D-10
 GePol: Maximum weight of points                     =    0.20577
 GePol: Number of points with low weight             =     271
 GePol: Fraction of low-weight points (<1% of avg)   =       7.12%
 GePol: Cavity surface area                          =    490.703 Ang**2
 GePol: Cavity volume                                =    556.461 Ang**3
 Leave Link  301 at Tue Feb  1 21:06:15 2022, MaxMem= 49660559360 cpu:               3.6 elap:               0.1
 (Enter /lustre1/prg/gaussian/bin/G16_C01_Linda_AVX2/g16/linda-exe/l302.exel)
 NPDir=0 NMtPBC=     1 NCelOv=     1 NCel=       1 NClECP=     1 NCelD=      1
         NCelK=      1 NCelE2=     1 NClLst=     1 CellRange=     0.0.
 One-electron integrals computed using PRISM.
 NBasis=   543 RedAO= T EigKep=  2.34D-04  NBF=   543
 NBsUse=   543 1.00D-06 EigRej= -1.00D+00 NBFU=   543
 Precomputing XC quadrature grid using
 IXCGrd= 4 IRadAn=           5 IRanWt=          -1 IRanGd=           0 AccXCQ= 0.00D+00.
 Generated NRdTot=       0 NPtTot=           0 NUsed=           0 NTot=          32
 NSgBfM=   557   557   557   557   557 MxSgAt=    51 MxSgA2=    51.
 Leave Link  302 at Tue Feb  1 21:06:17 2022, MaxMem= 49660559360 cpu:              39.0 elap:               1.2
 (Enter /lustre1/prg/gaussian/bin/G16_C01_Linda_AVX2/g16/l303.exe)
 DipDrv:  MaxL=1.
 Leave Link  303 at Tue Feb  1 21:06:18 2022, MaxMem= 49660559360 cpu:               5.2 elap:               0.2
 (Enter /lustre1/prg/gaussian/bin/G16_C01_Linda_AVX2/g16/l308.exe)
 Leave Link  308 at Tue Feb  1 21:06:18 2022, MaxMem= 49660559360 cpu:               6.3 elap:               0.2
 (Enter /lustre1/prg/gaussian/bin/G16_C01_Linda_AVX2/g16/linda-exe/l401.exel)
 ExpMin= 9.54D-02 ExpMax= 1.47D+04 ExpMxC= 5.03D+02 IAcc=3 IRadAn=         5 AccDes= 0.00D+00
 Harris functional with IExCor= 1009 and IRadAn=       5 diagonalized for initial guess.
 HarFok:  IExCor= 1009 AccDes= 0.00D+00 IRadAn=         5 IDoV= 1 UseB2=F ITyADJ=14
 ICtDFT=  3500011 ScaDFX=  1.000000  1.000000  1.000000  1.000000
 FoFCou: FMM=F IPFlag=           0 FMFlag=      100000 FMFlg1=           0
         NFxFlg=           0 DoJE=T BraDBF=F KetDBF=T FulRan=T
         wScrn=  0.000000 ICntrl=       500 IOpCl=  0 I1Cent=   200000004 NGrid=           0
         NMat0=    1 NMatS0=      1 NMatT0=    0 NMatD0=    1 NMtDS0=    0 NMtDT0=    0
 Symmetry not used in FoFCou.
 Harris En= -1373.28886088229    
 JPrj=0 DoOrth=F DoCkMO=F.
 Leave Link  401 at Tue Feb  1 21:06:21 2022, MaxMem= 49660559360 cpu:              76.5 elap:               2.5
 (Enter /lustre1/prg/gaussian/bin/G16_C01_Linda_AVX2/g16/linda-exe/l502.exel)
 Two-electron integral symmetry not used.
 Closed shell SCF:
 Using DIIS extrapolation, IDIIS=  1040.
 NGot= 49660559360 LenX= 49659873915 LenY= 49659542715
 Requested convergence on RMS density matrix=1.00D-08 within 128 cycles.
 Requested convergence on MAX density matrix=1.00D-06.
 Requested convergence on             energy=1.00D-06.
 No special actions if energy rises.
 Fock matrices will be formed incrementally for  20 cycles.

 Cycle   1  Pass 1  IDiag  1:
 FoFJK:  IHMeth= 1 ICntrl=       0 DoSepK=F KAlg= 0 I1Cent=           0 FoldK=F
 IRaf= 680000000 NMat=       1 IRICut=       1 DoRegI=T DoRafI=F ISym2E= 0 IDoP0=0 IntGTp=1.
 FoFCou: FMM=F IPFlag=           0 FMFlag=      100000 FMFlg1=           0
         NFxFlg=           0 DoJE=F BraDBF=F KetDBF=F FulRan=T
         wScrn=  0.000000 ICntrl=         0 IOpCl=  0 I1Cent=           0 NGrid=           0
         NMat0=    1 NMatS0=      1 NMatT0=    0 NMatD0=    1 NMtDS0=    0 NMtDT0=    0
 Symmetry not used in FoFCou.
 Inv3:  Mode=1 IEnd=    43479747.
 Iteration    1 A*A^-1 deviation from unit magnitude is 3.55D-15 for   1196.
 Iteration    1 A*A^-1 deviation from orthogonality  is 2.87D-15 for   1794   1220.
 Iteration    1 A^-1*A deviation from unit magnitude is 3.55D-15 for   1196.
 Iteration    1 A^-1*A deviation from orthogonality  is 2.48D-15 for   1760    890.
 E= -1373.64042527938    
 DIIS: error= 3.98D-02 at cycle   1 NSaved=   1.
 NSaved= 1 IEnMin= 1 EnMin= -1373.64042527938     IErMin= 1 ErrMin= 3.98D-02
 ErrMax= 3.98D-02  0.00D+00 EMaxC= 1.00D-01 BMatC= 5.16D-01 BMatP= 5.16D-01
 IDIUse=3 WtCom= 6.02D-01 WtEn= 3.98D-01
 Coeff-Com:  0.100D+01
 Coeff-En:   0.100D+01
 Coeff:      0.100D+01
 Gap=     0.146 Goal=   None    Shift=    0.000
 GapD=    0.146 DampG=1.000 DampE=0.500 DampFc=0.5000 IDamp=-1.
 Damping current iteration by 5.00D-01
 RMSDP=3.22D-03 MaxDP=1.24D-01              OVMax= 1.58D-01

 Cycle   2  Pass 1  IDiag  1:
 RMSU=  1.51D-03    CP:  9.63D-01
 E= -1373.91517756493     Delta-E=       -0.274752285555 Rises=F Damp=T
 DIIS: error= 7.88D-03 at cycle   2 NSaved=   2.
 NSaved= 2 IEnMin= 2 EnMin= -1373.91517756493     IErMin= 2 ErrMin= 7.88D-03
 ErrMax= 7.88D-03  0.00D+00 EMaxC= 1.00D-01 BMatC= 4.41D-02 BMatP= 5.16D-01
 IDIUse=3 WtCom= 9.21D-01 WtEn= 7.88D-02
 Coeff-Com: -0.148D+00 0.115D+01
 Coeff-En:   0.000D+00 0.100D+01
 Coeff:     -0.136D+00 0.114D+01
 Gap=     0.173 Goal=   None    Shift=    0.000
 RMSDP=1.11D-03 MaxDP=5.74D-02 DE=-2.75D-01 OVMax= 8.78D-02

 Cycle   3  Pass 1  IDiag  1:
 RMSU=  7.82D-04    CP:  9.36D-01  1.45D+00
 E= -1374.15548281066     Delta-E=       -0.240305245730 Rises=F Damp=F
 DIIS: error= 4.15D-03 at cycle   3 NSaved=   3.
 NSaved= 3 IEnMin= 3 EnMin= -1374.15548281066     IErMin= 3 ErrMin= 4.15D-03
 ErrMax= 4.15D-03  0.00D+00 EMaxC= 1.00D-01 BMatC= 1.60D-02 BMatP= 4.41D-02
 IDIUse=3 WtCom= 9.58D-01 WtEn= 4.15D-02
 Coeff-Com: -0.114D+00 0.457D+00 0.657D+00
 Coeff-En:   0.000D+00 0.000D+00 0.100D+01
 Coeff:     -0.109D+00 0.438D+00 0.671D+00
 Gap=     0.151 Goal=   None    Shift=    0.000
 RMSDP=3.15D-04 MaxDP=1.79D-02 DE=-2.40D-01 OVMax= 4.17D-02

 Cycle   4  Pass 1  IDiag  1:
 RMSU=  2.36D-04    CP:  9.38D-01  1.47D+00  7.38D-01
 E= -1374.16716953158     Delta-E=       -0.011686720918 Rises=F Damp=F
 DIIS: error= 2.28D-03 at cycle   4 NSaved=   4.
 NSaved= 4 IEnMin= 4 EnMin= -1374.16716953158     IErMin= 4 ErrMin= 2.28D-03
 ErrMax= 2.28D-03  0.00D+00 EMaxC= 1.00D-01 BMatC= 3.74D-03 BMatP= 1.60D-02
 IDIUse=3 WtCom= 9.77D-01 WtEn= 2.28D-02
 Coeff-Com: -0.399D-01 0.110D+00 0.361D+00 0.569D+00
 Coeff-En:   0.000D+00 0.000D+00 0.178D+00 0.822D+00
 Coeff:     -0.390D-01 0.107D+00 0.357D+00 0.575D+00
 Gap=     0.153 Goal=   None    Shift=    0.000
 RMSDP=1.19D-04 MaxDP=7.67D-03 DE=-1.17D-02 OVMax= 1.80D-02

 Cycle   5  Pass 1  IDiag  1:
 RMSU=  5.89D-05    CP:  9.37D-01  1.48D+00  8.15D-01  6.50D-01
 E= -1374.17070090517     Delta-E=       -0.003531373591 Rises=F Damp=F
 DIIS: error= 4.59D-04 at cycle   5 NSaved=   5.
 NSaved= 5 IEnMin= 5 EnMin= -1374.17070090517     IErMin= 5 ErrMin= 4.59D-04
 ErrMax= 4.59D-04  0.00D+00 EMaxC= 1.00D-01 BMatC= 1.80D-04 BMatP= 3.74D-03
 IDIUse=3 WtCom= 9.95D-01 WtEn= 4.59D-03
 Coeff-Com: -0.928D-02 0.152D-01 0.112D+00 0.259D+00 0.623D+00
 Coeff-En:   0.000D+00 0.000D+00 0.000D+00 0.000D+00 0.100D+01
 Coeff:     -0.924D-02 0.152D-01 0.111D+00 0.258D+00 0.625D+00
 Gap=     0.153 Goal=   None    Shift=    0.000
 RMSDP=2.75D-05 MaxDP=1.76D-03 DE=-3.53D-03 OVMax= 2.96D-03

 Cycle   6  Pass 1  IDiag  1:
 RMSU=  1.87D-05    CP:  9.37D-01  1.48D+00  8.19D-01  6.92D-01  7.16D-01
 E= -1374.17087545955     Delta-E=       -0.000174554372 Rises=F Damp=F
 DIIS: error= 1.31D-04 at cycle   6 NSaved=   6.
 NSaved= 6 IEnMin= 6 EnMin= -1374.17087545955     IErMin= 6 ErrMin= 1.31D-04
 ErrMax= 1.31D-04  0.00D+00 EMaxC= 1.00D-01 BMatC= 1.10D-05 BMatP= 1.80D-04
 IDIUse=3 WtCom= 9.99D-01 WtEn= 1.31D-03
 Coeff-Com: -0.158D-02 0.376D-03 0.243D-01 0.700D-01 0.259D+00 0.648D+00
 Coeff-En:   0.000D+00 0.000D+00 0.000D+00 0.000D+00 0.000D+00 0.100D+01
 Coeff:     -0.158D-02 0.375D-03 0.242D-01 0.699D-01 0.259D+00 0.648D+00
 Gap=     0.154 Goal=   None    Shift=    0.000
 RMSDP=8.11D-06 MaxDP=2.99D-04 DE=-1.75D-04 OVMax= 1.65D-03

 Cycle   7  Pass 1  IDiag  1:
 RMSU=  6.39D-06    CP:  9.37D-01  1.48D+00  8.21D-01  6.93D-01  7.86D-01
                    CP:  8.70D-01
 E= -1374.17088789397     Delta-E=       -0.000012434422 Rises=F Damp=F
 DIIS: error= 3.84D-05 at cycle   7 NSaved=   7.
 NSaved= 7 IEnMin= 7 EnMin= -1374.17088789397     IErMin= 7 ErrMin= 3.84D-05
 ErrMax= 3.84D-05  0.00D+00 EMaxC= 1.00D-01 BMatC= 1.07D-06 BMatP= 1.10D-05
 IDIUse=1 WtCom= 1.00D+00 WtEn= 0.00D+00
 Coeff-Com:  0.582D-03-0.185D-02-0.461D-02-0.555D-02 0.167D-01 0.225D+00
 Coeff-Com:  0.769D+00
 Coeff:      0.582D-03-0.185D-02-0.461D-02-0.555D-02 0.167D-01 0.225D+00
 Coeff:      0.769D+00
 Gap=     0.154 Goal=   None    Shift=    0.000
 RMSDP=3.23D-06 MaxDP=1.26D-04 DE=-1.24D-05 OVMax= 5.85D-04

 Cycle   8  Pass 1  IDiag  1:
 RMSU=  2.31D-06    CP:  9.37D-01  1.48D+00  8.21D-01  6.97D-01  7.98D-01
                    CP:  9.70D-01  1.00D+00
 E= -1374.17088933836     Delta-E=       -0.000001444396 Rises=F Damp=F
 DIIS: error= 1.78D-05 at cycle   8 NSaved=   8.
 NSaved= 8 IEnMin= 8 EnMin= -1374.17088933836     IErMin= 8 ErrMin= 1.78D-05
 ErrMax= 1.78D-05  0.00D+00 EMaxC= 1.00D-01 BMatC= 2.19D-07 BMatP= 1.07D-06
 IDIUse=1 WtCom= 1.00D+00 WtEn= 0.00D+00
 Coeff-Com:  0.602D-03-0.102D-02-0.664D-02-0.155D-01-0.397D-01-0.491D-02
 Coeff-Com:  0.363D+00 0.705D+00
 Coeff:      0.602D-03-0.102D-02-0.664D-02-0.155D-01-0.397D-01-0.491D-02
 Coeff:      0.363D+00 0.705D+00
 Gap=     0.154 Goal=   None    Shift=    0.000
 RMSDP=1.42D-06 MaxDP=6.72D-05 DE=-1.44D-06 OVMax= 3.76D-04

 Cycle   9  Pass 1  IDiag  1:
 RMSU=  7.41D-07    CP:  9.37D-01  1.48D+00  8.21D-01  6.98D-01  8.06D-01
                    CP:  1.00D+00  1.11D+00  7.90D-01
 E= -1374.17088965885     Delta-E=       -0.000000320483 Rises=F Damp=F
 DIIS: error= 3.32D-06 at cycle   9 NSaved=   9.
 NSaved= 9 IEnMin= 9 EnMin= -1374.17088965885     IErMin= 9 ErrMin= 3.32D-06
 ErrMax= 3.32D-06  0.00D+00 EMaxC= 1.00D-01 BMatC= 1.19D-08 BMatP= 2.19D-07
 IDIUse=1 WtCom= 1.00D+00 WtEn= 0.00D+00
 Coeff-Com:  0.160D-03-0.217D-03-0.176D-02-0.452D-02-0.138D-01-0.119D-01
 Coeff-Com:  0.626D-01 0.235D+00 0.735D+00
 Coeff:      0.160D-03-0.217D-03-0.176D-02-0.452D-02-0.138D-01-0.119D-01
 Coeff:      0.626D-01 0.235D+00 0.735D+00
 Gap=     0.154 Goal=   None    Shift=    0.000
 RMSDP=3.62D-07 MaxDP=2.50D-05 DE=-3.20D-07 OVMax= 5.38D-05

 Cycle  10  Pass 1  IDiag  1:
 RMSU=  2.54D-07    CP:  9.37D-01  1.48D+00  8.21D-01  6.98D-01  8.06D-01
                    CP:  1.01D+00  1.13D+00  8.64D-01  9.77D-01
 E= -1374.17088967419     Delta-E=       -0.000000015348 Rises=F Damp=F
 DIIS: error= 1.63D-06 at cycle  10 NSaved=  10.
 NSaved=10 IEnMin=10 EnMin= -1374.17088967419     IErMin=10 ErrMin= 1.63D-06
 ErrMax= 1.63D-06  0.00D+00 EMaxC= 1.00D-01 BMatC= 2.79D-09 BMatP= 1.19D-08
 IDIUse=1 WtCom= 1.00D+00 WtEn= 0.00D+00
 Coeff-Com: -0.184D-04 0.533D-04 0.259D-03 0.421D-03-0.151D-03-0.438D-02
 Coeff-Com: -0.331D-01 0.163D-02 0.349D+00 0.687D+00
 Coeff:     -0.184D-04 0.533D-04 0.259D-03 0.421D-03-0.151D-03-0.438D-02
 Coeff:     -0.331D-01 0.163D-02 0.349D+00 0.687D+00
 Gap=     0.154 Goal=   None    Shift=    0.000
 RMSDP=1.43D-07 MaxDP=7.33D-06 DE=-1.53D-08 OVMax= 3.50D-05

 Cycle  11  Pass 1  IDiag  1:
 RMSU=  9.23D-08    CP:  9.37D-01  1.48D+00  8.21D-01  6.98D-01  8.07D-01
                    CP:  1.01D+00  1.13D+00  8.79D-01  1.09D+00  8.87D-01
 E= -1374.17088967793     Delta-E=       -0.000000003736 Rises=F Damp=F
 DIIS: error= 5.21D-07 at cycle  11 NSaved=  11.
 NSaved=11 IEnMin=11 EnMin= -1374.17088967793     IErMin=11 ErrMin= 5.21D-07
 ErrMax= 5.21D-07  0.00D+00 EMaxC= 1.00D-01 BMatC= 2.71D-10 BMatP= 2.79D-09
 IDIUse=1 WtCom= 1.00D+00 WtEn= 0.00D+00
 Coeff-Com: -0.259D-04 0.469D-04 0.312D-03 0.707D-03 0.151D-02-0.339D-03
 Coeff-Com: -0.225D-01-0.260D-01 0.461D-01 0.282D+00 0.719D+00
 Coeff:     -0.259D-04 0.469D-04 0.312D-03 0.707D-03 0.151D-02-0.339D-03
 Coeff:     -0.225D-01-0.260D-01 0.461D-01 0.282D+00 0.719D+00
 Gap=     0.154 Goal=   None    Shift=    0.000
 RMSDP=4.94D-08 MaxDP=2.10D-06 DE=-3.74D-09 OVMax= 9.49D-06

 Cycle  12  Pass 1  IDiag  1:
 RMSU=  2.85D-08    CP:  9.37D-01  1.48D+00  8.21D-01  6.98D-01  8.07D-01
                    CP:  1.01D+00  1.13D+00  8.84D-01  1.12D+00  9.85D-01
                    CP:  9.23D-01
 E= -1374.17088967831     Delta-E=       -0.000000000383 Rises=F Damp=F
 DIIS: error= 1.74D-07 at cycle  12 NSaved=  12.
 NSaved=12 IEnMin=12 EnMin= -1374.17088967831     IErMin=12 ErrMin= 1.74D-07
 ErrMax= 1.74D-07  0.00D+00 EMaxC= 1.00D-01 BMatC= 2.10D-11 BMatP= 2.71D-10
 IDIUse=1 WtCom= 1.00D+00 WtEn= 0.00D+00
 Coeff-Com: -0.658D-05 0.102D-04 0.811D-04 0.196D-03 0.491D-03 0.350D-03
 Coeff-Com: -0.482D-02-0.667D-02-0.152D-01 0.467D-01 0.257D+00 0.722D+00
 Coeff:     -0.658D-05 0.102D-04 0.811D-04 0.196D-03 0.491D-03 0.350D-03
 Coeff:     -0.482D-02-0.667D-02-0.152D-01 0.467D-01 0.257D+00 0.722D+00
 Gap=     0.154 Goal=   None    Shift=    0.000
 RMSDP=1.19D-08 MaxDP=6.94D-07 DE=-3.83D-10 OVMax= 3.08D-06

 Cycle  13  Pass 1  IDiag  1:
 RMSU=  8.35D-09    CP:  9.37D-01  1.48D+00  8.21D-01  6.98D-01  8.07D-01
                    CP:  1.01D+00  1.14D+00  8.85D-01  1.12D+00  9.98D-01
                    CP:  9.92D-01  9.58D-01
 E= -1374.17088967831     Delta-E=        0.000000000000 Rises=F Damp=F
 DIIS: error= 4.74D-08 at cycle  13 NSaved=  13.
 NSaved=13 IEnMin=12 EnMin= -1374.17088967831     IErMin=13 ErrMin= 4.74D-08
 ErrMax= 4.74D-08  0.00D+00 EMaxC= 1.00D-01 BMatC= 2.43D-12 BMatP= 2.10D-11
 IDIUse=1 WtCom= 1.00D+00 WtEn= 0.00D+00
 Coeff-Com:  0.987D-06-0.222D-05-0.999D-05-0.207D-04-0.187D-04 0.159D-03
 Coeff-Com:  0.750D-03 0.136D-02-0.117D-01-0.158D-01-0.154D-01 0.192D+00
 Coeff-Com:  0.849D+00
 Coeff:      0.987D-06-0.222D-05-0.999D-05-0.207D-04-0.187D-04 0.159D-03
 Coeff:      0.750D-03 0.136D-02-0.117D-01-0.158D-01-0.154D-01 0.192D+00
 Coeff:      0.849D+00
 Gap=     0.154 Goal=   None    Shift=    0.000
 RMSDP=5.87D-09 MaxDP=1.74D-07 DE= 0.00D+00 OVMax= 1.21D-06

 Error on total polarization charges =  0.01565
 SCF Done:  E(RM062X) =  -1374.17088968     A.U. after   13 cycles
            NFock= 13  Conv=0.59D-08     -V/T= 2.0063
 KE= 1.365506515925D+03 PE=-8.895270084646D+03 EE= 3.308018996313D+03
 Leave Link  502 at Tue Feb  1 21:07:50 2022, MaxMem= 49660559360 cpu:            2709.5 elap:              87.5
 (Enter /lustre1/prg/gaussian/bin/G16_C01_Linda_AVX2/g16/l801.exe)
 DoSCS=F DFT=T ScalE2(SS,OS)=  1.000000  1.000000
 ExpMin= 9.54D-02 ExpMax= 1.47D+04 ExpMxC= 5.03D+02 IAcc=3 IRadAn=         5 AccDes= 0.00D+00
 HarFok:  IExCor=  205 AccDes= 0.00D+00 IRadAn=         5 IDoV=-2 UseB2=F ITyADJ=14
 ICtDFT= 12500011 ScaDFX=  1.000000  1.000000  1.000000  1.000000
 GSVD:  LWork=       -1280 too small for GESVD, short by        5600 words or        5600 for optimal perf.
 Largest valence mixing into a core orbital is  7.99D-05
 Largest core mixing into a valence orbital is  5.12D-05
 Range of M.O.s used for correlation:    33   543
 NBasis=   543 NAE=   109 NBE=   109 NFC=    32 NFV=     0
 NROrb=    511 NOA=    77 NOB=    77 NVA=   434 NVB=   434

 **** Warning!!: The largest alpha MO coefficient is  0.13933504D+02

 Leave Link  801 at Tue Feb  1 21:07:50 2022, MaxMem= 49660559360 cpu:               5.5 elap:               0.2
 (Enter /lustre1/prg/gaussian/bin/G16_C01_Linda_AVX2/g16/linda-exe/l914.exel)
 RHF ground state
 Two-electron integral symmetry not used.
 MDV= 49660559360 DFT=T DoStab=F Mixed=T DoRPA=T DoScal=F NonHer=T
 NEqPCM:  Using equilibrium solvation (IEInf=0, Eps=  20.4930, EpsInf=   1.8463)
 Making orbital integer symmetry assigments:
    24 initial guesses have been made.
 Convergence on wavefunction:    0.000001000000000
 Davidson Disk Diagonalization:  ConvIn= 1.00D-06 SkipCon=T Conv= 1.00D-06.
 Max sub-space:  2000 roots to seek:    24 dimension of matrix:        66836
 Iteration     1 Dimension    24 NMult     0 NNew     24
 CISAX will form    24 AO SS matrices at one time.
 NMat=    24 NSing=    24 JSym2X= 0.
 FoFJK:  IHMeth= 1 ICntrl=       0 DoSepK=F KAlg= 0 I1Cent=           0 FoldK=F
 IRaf= 680000000 NMat=      48 IRICut=      60 DoRegI=T DoRafI=T ISym2E= 0 IDoP0=3 IntGTp=3.
 FoFCou: FMM=F IPFlag=           0 FMFlag=      100000 FMFlg1=           0
         NFxFlg=           0 DoJE=F BraDBF=F KetDBF=F FulRan=T
         wScrn=  0.000000 ICntrl=         0 IOpCl=  0 I1Cent=           0 NGrid=           0
         NMat0=   48 NMatS0=     24 NMatT0=    0 NMatD0=   48 NMtDS0=    0 NMtDT0=    0
 Symmetry not used in FoFCou.
 Raff kept on since  63.90% of shell-pairs survive, threshold=   0.20 IRatSp=64.
 New state      4 was old state      6
 New state      5 was old state      7
 New state      6 was old state      5
 Excitation Energies [eV] at current iteration:
 Root      1 :     2.616770214875424
 Root      2 :     3.530139183981384
 Root      3 :     3.979797551888710
 Root      4 :     4.094990538915276
 Root      5 :     4.351563326039277
 Root      6 :     4.605615538143883
 Root      7 :     4.612465949370077
 Root      8 :     5.229355022649055
 Root      9 :     5.373113087512015
 Root     10 :     5.378850801049672
 Root     11 :     5.513582206073489
 Root     12 :     5.572655920288549
 Root     13 :     5.738700308618780
 Root     14 :     5.965946780861559
 Root     15 :     6.021640644221318
 Root     16 :     6.336672733194093
 Root     17 :     6.409607034471322
 Root     18 :     6.421145370860421
 Root     19 :     6.604085922033226
 Root     20 :     6.612670719497093
 Root     21 :     6.655246055190116
 Root     22 :     6.762553139578169
 Root     23 :     6.900836961841281
 Root     24 :     7.075734484072218
 Iteration     2 Dimension    36 NMult    24 NNew     12
 CISAX will form    12 AO SS matrices at one time.
 NMat=    12 NSing=    12 JSym2X= 0.
 Root      1 not converged, maximum delta is    0.073094191853173
 Root      2 not converged, maximum delta is    0.055806893693707
 Root      3 not converged, maximum delta is    0.044551875220848
 Root      4 not converged, maximum delta is    0.041830697628363
 Root      5 not converged, maximum delta is    0.044781450691831
 Root      6 not converged, maximum delta is    0.043678729098412
 Excitation Energies [eV] at current iteration:
 Root      1 :     2.253595005615189   Change is   -0.363175209260235
 Root      2 :     3.227081693831519   Change is   -0.303057490149865
 Root      3 :     3.576655013054920   Change is   -0.403142538833790
 Root      4 :     3.818738675106228   Change is   -0.276251863809049
 Root      5 :     4.197168578438566   Change is   -0.154394747600711
 Root      6 :     4.549610398176347   Change is   -0.056005139967535
 Iteration     3 Dimension    48 NMult    36 NNew     12
 CISAX will form    12 AO SS matrices at one time.
 NMat=    12 NSing=    12 JSym2X= 0.
 Root      1 not converged, maximum delta is    0.013784368683452
 Root      2 not converged, maximum delta is    0.005960126170133
 Root      3 not converged, maximum delta is    0.014047955838713
 Root      4 not converged, maximum delta is    0.011327847762292
 Root      5 not converged, maximum delta is    0.039099002216715
 Root      6 not converged, maximum delta is    0.032146265060513
 Excitation Energies [eV] at current iteration:
 Root      1 :     2.232493951531953   Change is   -0.021101054083236
 Root      2 :     3.214194101095238   Change is   -0.012887592736281
 Root      3 :     3.559602116042524   Change is   -0.017052897012397
 Root      4 :     3.805731149569936   Change is   -0.013007525536291
 Root      5 :     4.174274236660305   Change is   -0.022894341778261
 Root      6 :     4.536424048185456   Change is   -0.013186349990891
 Iteration     4 Dimension    60 NMult    48 NNew     12
 CISAX will form    12 AO SS matrices at one time.
 NMat=    12 NSing=    12 JSym2X= 0.
 Root      1 not converged, maximum delta is    0.002973359358538
 Root      2 not converged, maximum delta is    0.003020693029904
 Root      3 not converged, maximum delta is    0.003608543526839
 Root      4 not converged, maximum delta is    0.005486452685644
 Root      5 not converged, maximum delta is    0.012182057182853
 Root      6 not converged, maximum delta is    0.011926549497505
 Excitation Energies [eV] at current iteration:
 Root      1 :     2.230527449053498   Change is   -0.001966502478455
 Root      2 :     3.211913874688173   Change is   -0.002280226407065
 Root      3 :     3.556836588233011   Change is   -0.002765527809513
 Root      4 :     3.803375034955018   Change is   -0.002356114614918
 Root      5 :     4.171182598281681   Change is   -0.003091638378624
 Root      6 :     4.533456549791842   Change is   -0.002967498393614
 Iteration     5 Dimension    72 NMult    60 NNew     12
 CISAX will form    12 AO SS matrices at one time.
 NMat=    12 NSing=    12 JSym2X= 0.
 Root      1 not converged, maximum delta is    0.000518710050910
 Root      2 not converged, maximum delta is    0.000896664723188
 Root      3 not converged, maximum delta is    0.000885004086542
 Root      4 not converged, maximum delta is    0.001014098905204
 Root      5 not converged, maximum delta is    0.002383481411263
 Root      6 not converged, maximum delta is    0.009783691837740
 Excitation Energies [eV] at current iteration:
 Root      1 :     2.230434145323968   Change is   -0.000093303729530
 Root      2 :     3.211800992434085   Change is   -0.000112882254088
 Root      3 :     3.556637888415981   Change is   -0.000198699817030
 Root      4 :     3.803155144139833   Change is   -0.000219890815185
 Root      5 :     4.170880868120951   Change is   -0.000301730160730
 Root      6 :     4.533195978805450   Change is   -0.000260570986392
 Iteration     6 Dimension    84 NMult    72 NNew     12
 CISAX will form    12 AO SS matrices at one time.
 NMat=    12 NSing=    12 JSym2X= 0.
 Root      1 not converged, maximum delta is    0.000129923695733
 Root      2 not converged, maximum delta is    0.000323951631013
 Root      3 not converged, maximum delta is    0.000268133709135
 Root      4 not converged, maximum delta is    0.000443704380572
 Root      5 not converged, maximum delta is    0.000641246735009
 Root      6 not converged, maximum delta is    0.023534413855890
 Excitation Energies [eV] at current iteration:
 Root      1 :     2.230429658029493   Change is   -0.000004487294474
 Root      2 :     3.211788908219042   Change is   -0.000012084215043
 Root      3 :     3.556625276779511   Change is   -0.000012611636469
 Root      4 :     3.803129383380983   Change is   -0.000025760758850
 Root      5 :     4.170857547974687   Change is   -0.000023320146264
 Root      6 :     4.533073713751771   Change is   -0.000122265053679
 Iteration     7 Dimension    96 NMult    84 NNew     12
 CISAX will form    12 AO SS matrices at one time.
 NMat=    12 NSing=    12 JSym2X= 0.
 Root      1 not converged, maximum delta is    0.000024032735310
 Root      2 not converged, maximum delta is    0.000096880995699
 Root      3 not converged, maximum delta is    0.000089823048349
 Root      4 not converged, maximum delta is    0.000210835445352
 Root      5 not converged, maximum delta is    0.000265822730697
 Root      6 not converged, maximum delta is    0.200690188682696
 Excitation Energies [eV] at current iteration:
 Root      1 :     2.230429347914256   Change is   -0.000000310115237
 Root      2 :     3.211787834156605   Change is   -0.000001074062437
 Root      3 :     3.556624152032374   Change is   -0.000001124747137
 Root      4 :     3.803125992409755   Change is   -0.000003390971228
 Root      5 :     4.170854906297046   Change is   -0.000002641677641
 Root      6 :     4.532307359729033   Change is   -0.000766354022738
 Iteration     8 Dimension   108 NMult    96 NNew     12
 CISAX will form    12 AO SS matrices at one time.
 NMat=    12 NSing=    12 JSym2X= 0.
 Root      1 not converged, maximum delta is    0.000005930432058
 Root      2 not converged, maximum delta is    0.000023489534810
 Root      3 not converged, maximum delta is    0.000016880393572
 Root      4 not converged, maximum delta is    0.000050461998467
 Root      5 not converged, maximum delta is    0.000037521046266
 Root      6 not converged, maximum delta is    0.194851958187826
 Excitation Energies [eV] at current iteration:
 Root      1 :     2.230429331779069   Change is   -0.000000016135187
 Root      2 :     3.211787727956775   Change is   -0.000000106199830
 Root      3 :     3.556624090073346   Change is   -0.000000061959028
 Root      4 :     3.803125736305352   Change is   -0.000000256104402
 Root      5 :     4.170854653845275   Change is   -0.000000252451771
 Root      6 :     4.531074832567329   Change is   -0.001232527161703
 Iteration     9 Dimension   120 NMult   108 NNew     12
 CISAX will form    12 AO SS matrices at one time.
 NMat=    12 NSing=    12 JSym2X= 0.
 Root      1 not converged, maximum delta is    0.000001294473706
 Root      2 not converged, maximum delta is    0.000002806773510
 Root      3 not converged, maximum delta is    0.000005778609574
 Root      4 not converged, maximum delta is    0.000007778885710
 Root      5 not converged, maximum delta is    0.000016332284135
 Root      6 not converged, maximum delta is    0.027294720269799
 Excitation Energies [eV] at current iteration:
 Root      1 :     2.230429331167975   Change is   -0.000000000611093
 Root      2 :     3.211787722413263   Change is   -0.000000005543512
 Root      3 :     3.556624085869410   Change is   -0.000000004203936
 Root      4 :     3.803125717500880   Change is   -0.000000018804472
 Root      5 :     4.170854633166004   Change is   -0.000000020679271
 Root      6 :     4.530868238693515   Change is   -0.000206593873814
 Iteration    10 Dimension   132 NMult   120 NNew     12
 CISAX will form    12 AO SS matrices at one time.
 NMat=    12 NSing=    12 JSym2X= 0.
 Root      1 has converged.
 Root      2 has converged.
 Root      3 has converged.
 Root      4 not converged, maximum delta is    0.000002163835282
 Root      5 not converged, maximum delta is    0.000005290056956
 Root      6 not converged, maximum delta is    0.002588666121364
 Excitation Energies [eV] at current iteration:
 Root      1 :     2.230429331138969   Change is   -0.000000000029006
 Root      2 :     3.211787722143793   Change is   -0.000000000269470
 Root      3 :     3.556624085689815   Change is   -0.000000000179595
 Root      4 :     3.803125716293358   Change is   -0.000000001207522
 Root      5 :     4.170854631197666   Change is   -0.000000001968339
 Root      6 :     4.530847530924353   Change is   -0.000020707769162
 Iteration    11 Dimension   138 NMult   132 NNew      6
 CISAX will form     6 AO SS matrices at one time.
 NMat=     6 NSing=     6 JSym2X= 0.
 Root      1 has converged.
 Root      2 has converged.
 Root      3 has converged.
 Root      4 has converged.
 Root      5 has converged.
 Root      6 not converged, maximum delta is    0.000255019799945
 Excitation Energies [eV] at current iteration:
 Root      1 :     2.230429331138821   Change is   -0.000000000000148
 Root      2 :     3.211787722143435   Change is   -0.000000000000358
 Root      3 :     3.556624085688244   Change is   -0.000000000001572
 Root      4 :     3.803125716200605   Change is   -0.000000000092754
 Root      5 :     4.170854631053704   Change is   -0.000000000143962
 Root      6 :     4.530845835459618   Change is   -0.000001695464735
 Iteration    12 Dimension   140 NMult   138 NNew      2
 CISAX will form     2 AO SS matrices at one time.
 NMat=     2 NSing=     2 JSym2X= 0.
 Root      1 has converged.
 Root      2 has converged.
 Root      3 has converged.
 Root      4 has converged.
 Root      5 has converged.
 Root      6 not converged, maximum delta is    0.000048719231957
 Excitation Energies [eV] at current iteration:
 Root      1 :     2.230429331138784   Change is   -0.000000000000037
 Root      2 :     3.211787722143409   Change is   -0.000000000000026
 Root      3 :     3.556624085688174   Change is   -0.000000000000069
 Root      4 :     3.803125716200130   Change is   -0.000000000000475
 Root      5 :     4.170854631053644   Change is   -0.000000000000059
 Root      6 :     4.530845685604385   Change is   -0.000000149855233
 Iteration    13 Dimension   142 NMult   140 NNew      2
 CISAX will form     2 AO SS matrices at one time.
 NMat=     2 NSing=     2 JSym2X= 0.
 Root      1 has converged.
 Root      2 has converged.
 Root      3 has converged.
 Root      4 has converged.
 Root      5 has converged.
 Root      6 not converged, maximum delta is    0.000017083001054
 Excitation Energies [eV] at current iteration:
 Root      1 :     2.230429331138858   Change is    0.000000000000074
 Root      2 :     3.211787722142794   Change is   -0.000000000000614
 Root      3 :     3.556624085688151   Change is   -0.000000000000023
 Root      4 :     3.803125716199568   Change is   -0.000000000000562
 Root      5 :     4.170854631053526   Change is   -0.000000000000119
 Root      6 :     4.530845672397827   Change is   -0.000000013206558
 Iteration    14 Dimension   144 NMult   142 NNew      2
 CISAX will form     2 AO SS matrices at one time.
 NMat=     2 NSing=     2 JSym2X= 0.
 Root      1 has converged.
 Root      2 has converged.
 Root      3 has converged.
 Root      4 has converged.
 Root      5 has converged.
 Root      6 not converged, maximum delta is    0.000004316619860
 Excitation Energies [eV] at current iteration:
 Root      1 :     2.230429331138747   Change is   -0.000000000000111
 Root      2 :     3.211787722141438   Change is   -0.000000000001356
 Root      3 :     3.556624085687827   Change is   -0.000000000000323
 Root      4 :     3.803125716199438   Change is   -0.000000000000130
 Root      5 :     4.170854631053467   Change is   -0.000000000000059
 Root      6 :     4.530845670810103   Change is   -0.000000001587724
 Iteration    15 Dimension   146 NMult   144 NNew      2
 CISAX will form     2 AO SS matrices at one time.
 NMat=     2 NSing=     2 JSym2X= 0.
 Root      1 has converged.
 Root      2 has converged.
 Root      3 has converged.
 Root      4 has converged.
 Root      5 has converged.
 Root      6 not converged, maximum delta is    0.000001853939775
 Excitation Energies [eV] at current iteration:
 Root      1 :     2.230429331138747   Change is    0.000000000000000
 Root      2 :     3.211787722140286   Change is   -0.000000000001152
 Root      3 :     3.556624085687758   Change is   -0.000000000000069
 Root      4 :     3.803125716199287   Change is   -0.000000000000151
 Root      5 :     4.170854631053428   Change is   -0.000000000000039
 Root      6 :     4.530845670654355   Change is   -0.000000000155748
 Iteration    16 Dimension   148 NMult   146 NNew      2
 CISAX will form     2 AO SS matrices at one time.
 NMat=     2 NSing=     2 JSym2X= 0.
 Root      1 has converged.
 Root      2 has converged.
 Root      3 has converged.
 Root      4 has converged.
 Root      5 has converged.
 Root      6 has converged.
 Excitation Energies [eV] at current iteration:
 Root      1 :     2.230429331138784   Change is    0.000000000000037
 Root      2 :     3.211787722140235   Change is   -0.000000000000051
 Root      3 :     3.556624085687643   Change is   -0.000000000000116
 Root      4 :     3.803125716199243   Change is   -0.000000000000044
 Root      5 :     4.170854631053447   Change is    0.000000000000020
 Root      6 :     4.530845670639713   Change is   -0.000000000014642
 Convergence achieved on expansion vectors.
 ***********************************************************************
 Excited states from <AA,BB:AA,BB> singles matrix:
 ***********************************************************************
 
 1PDM for each excited state written to RWF  633
 Ground to excited state transition densities written to RWF  633
 Ground to excited state transition electric dipole moments (Au):
       state          X           Y           Z        Dip. S.      Osc.
         1         2.9364      0.0378     -2.6776     15.7936      0.8630
         2        -0.1350      1.7055      0.0139      2.9273      0.2303
         3         1.4011      0.0392     -1.2818      3.6075      0.3143
         4        -0.0191      1.6884     -0.0460      2.8533      0.2659
         5        -0.2235      0.0523     -0.1955      0.0909      0.0093
         6         0.0907      0.2270     -0.1174      0.0736      0.0082
 Ground to excited state transition velocity dipole moments (Au):
       state          X           Y           Z        Dip. S.      Osc.
         1        -0.2461     -0.0032      0.2234      0.1105      0.8985
         2         0.0150     -0.2014     -0.0033      0.0408      0.2304
         3        -0.1892     -0.0052      0.1724      0.0655      0.3343
         4         0.0031     -0.2374      0.0069      0.0564      0.2691
         5         0.0401     -0.0080      0.0300      0.0026      0.0112
         6        -0.0181     -0.0400      0.0208      0.0024      0.0095
 Ground to excited state transition magnetic dipole moments (Au):
       state          X           Y           Z
         1        -2.9604     -4.9134     -3.3272
         2         0.0089      0.0447     -4.2540
         3        -2.8170     -3.6794     -3.1692
         4        -0.2066     -0.1992     -5.1452
         5        -0.3728     -0.6428     -0.1654
         6        -0.4992     -0.4721     -1.4253
 Ground to excited state transition velocity quadrupole moments (Au):
[...]
 Alpha virt. eigenvalues --    1.33400   1.34143   1.34909   1.35411   1.35693
 Alpha virt. eigenvalues --    1.35837   1.36343   1.36468   1.37654   1.38807
 Alpha virt. eigenvalues --    1.39355   1.40196   1.40379   1.41395   1.41800
 Alpha virt. eigenvalues --    1.42393   1.43661   1.45662   1.47750   1.48615
 Alpha virt. eigenvalues --    1.49026   1.50237   1.50466   1.50903   1.51492
 Alpha virt. eigenvalues --    1.51925   1.52389   1.52549   1.52767   1.53200
 Alpha virt. eigenvalues --    1.53504   1.54568   1.54658   1.54818   1.55499
 Alpha virt. eigenvalues --    1.56193   1.57672   1.58862   1.59378   1.61290
 Alpha virt. eigenvalues --    1.61718   1.62313   1.62416   1.62811   1.63289
 Alpha virt. eigenvalues --    1.63627   1.64392   1.64483   1.64555   1.64748
 Alpha virt. eigenvalues --    1.64993   1.65583   1.66097   1.66372   1.66489
 Alpha virt. eigenvalues --    1.66851   1.67475   1.67593   1.67971   1.68595
 Alpha virt. eigenvalues --    1.68989   1.69667   1.69871   1.70261   1.70879
 Alpha virt. eigenvalues --    1.71391   1.71506   1.72456   1.73699   1.74234
 Alpha virt. eigenvalues --    1.74738   1.75326   1.75570   1.76820   1.77190
 Alpha virt. eigenvalues --    1.78024   1.78442   1.78718   1.78975   1.79428
 Alpha virt. eigenvalues --    1.79881   1.80295   1.80594   1.81024   1.81468
 Alpha virt. eigenvalues --    1.82323   1.82593   1.83385   1.84083   1.84595
 Alpha virt. eigenvalues --    1.85381   1.85788   1.86522   1.87187   1.87254
 Alpha virt. eigenvalues --    1.87683   1.87882   1.88396   1.88704   1.88999
 Alpha virt. eigenvalues --    1.89111   1.89525   1.90366   1.90498   1.90969
 Alpha virt. eigenvalues --    1.91153   1.92065   1.92725   1.94250   1.94742
 Alpha virt. eigenvalues --    1.95654   1.97398   1.97889   1.97977   1.99397
 Alpha virt. eigenvalues --    1.99791   2.00069   2.00333   2.00663   2.01856
 Alpha virt. eigenvalues --    2.02369   2.02573   2.03222   2.03602   2.03768
 Alpha virt. eigenvalues --    2.03966   2.06927   2.08167   2.10465   2.10645
 Alpha virt. eigenvalues --    2.12242   2.13537   2.15550   2.15599   2.16167
 Alpha virt. eigenvalues --    2.18033   2.18675   2.20946   2.22235   2.22547
 Alpha virt. eigenvalues --    2.23160   2.23247   2.26406   2.27813   2.29167
 Alpha virt. eigenvalues --    2.29885   2.30645   2.31710   2.31961   2.33527
 Alpha virt. eigenvalues --    2.35214   2.35757   2.37600   2.39735   2.40071
 Alpha virt. eigenvalues --    2.40257   2.41045   2.41869   2.42989   2.43564
 Alpha virt. eigenvalues --    2.45346   2.45592   2.46346   2.46639   2.46791
 Alpha virt. eigenvalues --    2.47558   2.49090   2.49236   2.49344   2.50792
 Alpha virt. eigenvalues --    2.52283   2.55649   2.56025   2.58028   2.64314
 Alpha virt. eigenvalues --    2.65576   2.65957   2.66099   2.69034   2.69767
 Alpha virt. eigenvalues --    2.71523   2.71932   2.73035   2.73144   2.74071
 Alpha virt. eigenvalues --    2.75971   2.76393   2.81983   2.83447   2.85470
 Alpha virt. eigenvalues --    2.85860   2.88864   2.89202   2.92676   2.95635
 Alpha virt. eigenvalues --    2.95896   3.00251   3.09636   3.11662   3.14668
 Alpha virt. eigenvalues --    3.17179   3.56642   3.59481   3.59750   3.68106
 Alpha virt. eigenvalues --    3.68386   3.71696   3.74697   3.75382   3.90550
 Alpha virt. eigenvalues --    4.01688   4.05701   4.13414   4.14328
          Condensed to atoms (all electrons):
 Mulliken charges:
               1
     1  N   -0.180788
     2  C    0.113912
     3  C   -0.028986
     4  C   -0.079702
     5  C    0.118940
     6  C    0.001801
     7  C    0.007679
     8  C    0.005086
     9  C    0.006397
    10  C   -0.002907
    11  C   -0.091088
    12  C    0.113551
    13  C    0.112926
    14  C   -0.071930
    15  C   -0.031155
    16  C    0.113372
    17  N   -0.176912
    18  F   -0.238347
    19  B    0.179001
    20  F   -0.231367
    21  H    0.066292
    22  H    0.033371
    23  H    0.023076
    24  H    0.030204
    25  H    0.029943
    26  H    0.030162
    27  H    0.025777
    28  H    0.032997
    29  H    0.065692
    30  C    0.012124
    31  C   -0.041133
    32  C   -0.045364
    33  C    0.010563
    34  C    0.009861
    35  C   -0.007849
    36  H    0.010543
    37  H    0.009625
    38  H    0.018032
    39  H    0.018529
    40  H    0.016754
    41  C    0.013231
    42  C   -0.041570
    43  C   -0.045805
    44  C    0.010454
    45  C    0.009919
    46  C   -0.008217
    47  H    0.010674
    48  H    0.009591
    49  H    0.018009
    50  H    0.018395
    51  H    0.016635
 Sum of Mulliken charges =  -0.00000
 Mulliken charges with hydrogens summed into heavy atoms:
               1
     1  N   -0.180788
     2  C    0.180203
     3  C   -0.028986
     4  C   -0.046331
     5  C    0.118940
     6  C    0.024877
     7  C    0.037883
     8  C    0.035028
     9  C    0.036560
    10  C    0.022870
    11  C   -0.091088
    12  C    0.113551
    13  C    0.112926
    14  C   -0.038933
    15  C   -0.031155
    16  C    0.179064
    17  N   -0.176912
    18  F   -0.238347
    19  B    0.179001
    20  F   -0.231367
    30  C    0.012124
    31  C   -0.030590
    32  C   -0.035739
    33  C    0.028594
    34  C    0.028391
    35  C    0.008905
    41  C    0.013231
    42  C   -0.030896
    43  C   -0.036214
    44  C    0.028464
    45  C    0.028314
    46  C    0.008419
 Electronic spatial extent (au):  <R**2>=         179710.5946
 Charge=             -0.0000 electrons
 Dipole moment (field-independent basis, Debye):
    X=              1.1522    Y=              7.0502    Z=              1.4666  Tot=              7.2927
 Quadrupole moment (field-independent basis, Debye-Ang):
   XX=           -137.7462   YY=           -273.3463   ZZ=           -178.0080
   XY=             70.5708   XZ=             -4.3986   YZ=            -15.5383
 Traceless Quadrupole moment (field-independent basis, Debye-Ang):
   XX=             58.6206   YY=            -76.9795   ZZ=             18.3589
   XY=             70.5708   XZ=             -4.3986   YZ=            -15.5383
 Octapole moment (field-independent basis, Debye-Ang**2):
  XXX=          -5357.6379  YYY=           5399.1226  ZZZ=             20.7853  XYY=          -3100.9371
  XXY=           2039.2099  XXZ=           -325.0167  XZZ=          -2122.8410  YZZ=           1435.7466
  YYZ=            166.7281  XYZ=             22.2590
 Hexadecapole moment (field-independent basis, Debye-Ang**3):
 XXXX=        -140403.9096 YYYY=         -86880.0420 ZZZZ=          -8717.1175 XXXY=          54177.2425
 XXXZ=          -3486.6978 YYYX=          62504.8056 YYYZ=          -1747.3386 ZZZX=           4173.4360
 ZZZY=           -200.5591 XXYY=         -48533.7925 XXZZ=         -27703.9953 YYZZ=         -13772.9882
 XXYZ=           2853.1442 YYXZ=           1312.3965 ZZXY=          17144.2921
 N-N= 2.846365796276D+03 E-N=-8.892822028451D+03  KE= 1.365465474815D+03

 **********************************************************************

            Population analysis using the CI Rho(1) Density.

 **********************************************************************

          Condensed to atoms (all electrons):
 Mulliken charges:
               1
     1  N   -0.180782
     2  C    0.112318
     3  C    0.052625
     4  C   -0.189050
     5  C    0.239544
     6  C   -0.019366
     7  C    0.006262
     8  C   -0.015296
     9  C    0.005188
    10  C   -0.025014
    11  C   -0.096462
    12  C   -0.162730
    13  C    0.233245
    14  C   -0.179521
    15  C    0.051788
    16  C    0.113375
    17  N   -0.176697
    18  F   -0.239226
    19  B    0.171911
    20  F   -0.233463
    21  H    0.065852
    22  H    0.032135
    23  H    0.023179
    24  H    0.029833
    25  H    0.029810
    26  H    0.029805
    27  H    0.025706
    28  H    0.031571
    29  H    0.065229
    30  C    0.028786
    31  C   -0.023594
    32  C   -0.022626
    33  C    0.013501
    34  C    0.010354
    35  C    0.018855
    36  H    0.010580
    37  H    0.009622
    38  H    0.018028
    39  H    0.018521
    40  H    0.016884
    41  C    0.029821
    42  C   -0.023701
    43  C   -0.022842
    44  C    0.013430
    45  C    0.010423
    46  C    0.018768
    47  H    0.010648
    48  H    0.009605
    49  H    0.018008
    50  H    0.018387
    51  H    0.016769
 Sum of Mulliken charges =  -0.00000
 Mulliken charges with hydrogens summed into heavy atoms:
               1
     1  N   -0.180782
     2  C    0.178169
     3  C    0.052625
     4  C   -0.156914
     5  C    0.239544
     6  C    0.003814
     7  C    0.036095
     8  C    0.014515
     9  C    0.034994
    10  C    0.000692
    11  C   -0.096462
    12  C   -0.162730
    13  C    0.233245
    14  C   -0.147950
    15  C    0.051788
    16  C    0.178604
    17  N   -0.176697
    18  F   -0.239226
    19  B    0.171911
    20  F   -0.233463
    30  C    0.028786
    31  C   -0.013014
    32  C   -0.013004
    33  C    0.031530
    34  C    0.028875
    35  C    0.035739
    41  C    0.029821
    42  C   -0.013053
    43  C   -0.013236
    44  C    0.031437
    45  C    0.028810
    46  C    0.035537
 Electronic spatial extent (au):  <R**2>=         179636.3527
 Charge=              0.0000 electrons
 Dipole moment (field-independent basis, Debye):
    X=              1.4328    Y=              3.1764    Z=              1.8090  Tot=              3.9262
 Quadrupole moment (field-independent basis, Debye-Ang):
   XX=           -111.8152   YY=           -215.9844   ZZ=           -161.4431
   XY=             22.7621   XZ=            -18.3196   YZ=            -18.8061
 Traceless Quadrupole moment (field-independent basis, Debye-Ang):
   XX=             51.2658   YY=            -52.9035   ZZ=              1.6378
   XY=             22.7621   XZ=            -18.3196   YZ=            -18.8061
 Octapole moment (field-independent basis, Debye-Ang**2):
  XXX=          -4539.2166  YYY=           4743.2712  ZZZ=             34.1030  XYY=          -2408.2345
  XXY=           1271.5496  XXZ=           -706.6896  XZZ=          -1931.3365  YZZ=           1282.4027
  YYZ=            198.5384  XYZ=            147.3504
 Hexadecapole moment (field-independent basis, Debye-Ang**3):
 XXXX=        -121100.8315 YYYY=         -80080.5562 ZZZZ=          -8346.5946 XXXY=          40456.0643
 XXXZ=         -11035.6510 YYYX=          54647.1205 YYYZ=          -2061.6559 ZZZX=           3970.0950
 ZZZY=           -326.3287 XXYY=         -38524.3077 XXZZ=         -25117.6622 YYZZ=         -12357.5306
 XXYZ=           6303.2521 YYXZ=            191.5766 ZZXY=          15376.4439
 N-N= 2.846365796276D+03 E-N=-8.893586864568D+03  KE= 1.365557463272D+03

 **********************************************************************

            Population analysis using the CI Density.

 **********************************************************************

          Condensed to atoms (all electrons):
 Mulliken charges:
               1
     1  N   -0.182562
     2  C    0.112798
     3  C   -0.007900
     4  C   -0.111686
     5  C    0.152722
     6  C   -0.008787
     7  C    0.002895
     8  C   -0.010090
     9  C    0.001793
    10  C   -0.014238
    11  C   -0.086122
    12  C    0.045747
    13  C    0.145860
    14  C   -0.103133
    15  C   -0.009751
    16  C    0.112972
    17  N   -0.178549
    18  F   -0.239282
    19  B    0.172534
    20  F   -0.232995
    21  H    0.064768
    22  H    0.022473
    23  H    0.012175
    24  H    0.022320
    25  H    0.020901
    26  H    0.022282
    27  H    0.015044
    28  H    0.022043
    29  H    0.064395
    30  C    0.008515
    31  C   -0.028673
    32  C   -0.030230
    33  C    0.013376
    34  C    0.011176
    35  C    0.005889
    36  H    0.017571
    37  H    0.016509
    38  H    0.023306
    39  H    0.023604
    40  H    0.024245
    41  C    0.009390
    42  C   -0.028811
    43  C   -0.030492
    44  C    0.013334
    45  C    0.011279
    46  C    0.005730
    47  H    0.017782
    48  H    0.016640
    49  H    0.023396
    50  H    0.023571
    51  H    0.024263
 Sum of Mulliken charges =  -0.00000
 Mulliken charges with hydrogens summed into heavy atoms:
               1
     1  N   -0.182562
     2  C    0.177566
     3  C   -0.007900
     4  C   -0.089213
     5  C    0.152722
     6  C    0.003388
     7  C    0.025214
     8  C    0.010811
     9  C    0.024076
    10  C    0.000806
    11  C   -0.086122
    12  C    0.045747
    13  C    0.145860
    14  C   -0.081090
    15  C   -0.009751
    16  C    0.177367
    17  N   -0.178549
    18  F   -0.239282
    19  B    0.172534
    20  F   -0.232995
    30  C    0.008515
    31  C   -0.011102
    32  C   -0.013720
    33  C    0.036683
    34  C    0.034780
    35  C    0.030134
    41  C    0.009390
    42  C   -0.011028
    43  C   -0.013852
    44  C    0.036731
    45  C    0.034850
    46  C    0.029993
 Electronic spatial extent (au):  <R**2>=         179653.7839
 Charge=             -0.0000 electrons
 Dipole moment (field-independent basis, Debye):
    X=              1.3921    Y=              4.1370    Z=              1.7369  Tot=              4.6978
 Quadrupole moment (field-independent basis, Debye-Ang):
   XX=           -116.0025   YY=           -233.0593   ZZ=           -163.6264
   XY=             34.4051   XZ=            -16.8585   YZ=            -18.3046
 Traceless Quadrupole moment (field-independent basis, Debye-Ang):
   XX=             54.8936   YY=            -62.1633   ZZ=              7.2697
   XY=             34.4051   XZ=            -16.8585   YZ=            -18.3046
 Octapole moment (field-independent basis, Debye-Ang**2):
  XXX=          -4669.9908  YYY=           4951.5230  ZZZ=             35.2657  XYY=          -2611.4251
  XXY=           1440.0233  XXZ=           -661.7814  XZZ=          -1957.7560  YZZ=           1302.8875
  YYZ=            195.0349  XYZ=            130.8586
 Hexadecapole moment (field-independent basis, Debye-Ang**3):
 XXXX=        -124005.3256 YYYY=         -82237.8849 ZZZZ=          -8309.7813 XXXY=          43129.6560
 XXXZ=         -10205.7158 YYYX=          57108.3275 YYYZ=          -2040.1008 ZZZX=           3954.9123
 ZZZY=           -339.2953 XXYY=         -41169.0050 XXZZ=         -25411.3598 YYZZ=         -12533.6542
 XXYZ=           5841.1122 YYXZ=            344.1158 ZZXY=          15625.0247
 N-N= 2.846365796276D+03 E-N=-8.893359177958D+03  KE= 1.365563968473D+03
 No NMR shielding tensors so no spin-rotation constants.
 Leave Link  601 at Wed Feb  2 00:44:07 2022, MaxMem= 49660559360 cpu:              17.6 elap:               0.7
 (Enter /lustre1/prg/gaussian/bin/G16_C01_Linda_AVX2/g16/l9999.exe)
 Electronic transition elements 
                 1             2             3             4             5 
      1  -0.137409D+04 -0.137405D+04 -0.137404D+04 -0.137403D+04 -0.137402D+04
      2   0.295480D+01 -0.115585D+00  0.137282D+01 -0.206534D-01 -0.210380D+00
      3   0.389152D-01  0.168471D+01  0.334547D-01  0.165635D+01  0.465441D-01
      4  -0.270083D+01  0.284689D-02 -0.125802D+01 -0.434235D-01 -0.202575D+00
      5  -0.248722D+00  0.129255D-01 -0.186278D+00  0.323699D-02  0.381315D-01
      6  -0.330850D-02 -0.200205D+00 -0.447283D-02 -0.233637D+00 -0.712070D-02
      7   0.226266D+00 -0.181431D-02  0.169992D+00  0.646757D-02  0.311571D-01
      8  -0.300834D+01 -0.618167D-02 -0.278284D+01 -0.187742D+00 -0.384488D+00
      9  -0.498650D+01  0.106257D-01 -0.364881D+01 -0.191563D+00 -0.671546D+00
     10  -0.337735D+01 -0.426116D+01 -0.311235D+01 -0.507363D+01 -0.159162D+00
     11  -0.112733D+02  0.187059D+01 -0.833426D+01  0.705510D+00  0.166337D+01
     12   0.119688D+00  0.552342D+01  0.158136D+00  0.549293D+01  0.143932D+00
     13   0.100155D+00  0.116155D+01  0.407665D-01  0.579398D+00  0.665621D-02
     14   0.419579D+01 -0.462883D+01  0.291714D+01 -0.523619D+01 -0.337722D+00
     15   0.507670D+01 -0.129531D+01  0.378216D+01 -0.483946D+00  0.696167D+00
     16  -0.387856D+01  0.223145D-01 -0.275660D+01 -0.144762D+00 -0.454546D+00
                 6 
      1  -0.137400D+04
      2   0.802149D-01
      3   0.239172D+00
      4  -0.103266D+00
      5  -0.160167D-01
      6  -0.421926D-01
      7   0.181684D-01
      8  -0.423781D+00
      9  -0.409331D+00
     10  -0.140128D+01
     11  -0.658870D+00
     12   0.150961D+01
     13   0.472375D-01
     14  -0.832522D+00
     15   0.349828D+00
     16  -0.178046D+00
 Unable to Open any file for archive entry.
 1\1\VILNIUS-FIZIKA341\FOpt\RM062X TD-FC\CC-pVDZ\C27H19B1F2N2\TOLISTE\0
 2-Feb-2022\0\\#p m062x cc-pvdz scrf=(cpcm,solvent=Acetone) td=(nstate=
 6,root=1) opt=tight nosymm density=all int=ultrafine fchk\\BDP-PP-phen
 yl, optimized S1 in toluene\\0,1\N,12.6448855419,-9.4582394942,-0.9691
 796618\C,13.6522401706,-9.8766649817,-1.7317085789\C,14.3803011087,-8.
 7588371491,-2.2354160082\C,13.7382395272,-7.6131223243,-1.7234648795\C
 ,12.6708510656,-8.0466729262,-0.9186183643\C,10.5225631917,-5.15275364
 ,-0.166408537\C,10.5074579559,-3.7615060851,-0.1126914432\C,11.6979093
 894,-3.0507949247,0.0498071975\C,12.9040424273,-3.7437393015,0.1624384
 643\C,12.923207743,-5.1354205582,0.1079030928\C,11.7321561632,-5.86245
 94727,-0.0621905466\C,11.735498903,-7.334102134,-0.1191639724\C,10.839
 4351712,-8.0812876621,0.6946614717\C,9.9774824008,-7.6777550287,1.7281
 273742\C,9.4146391889,-8.8402918617,2.2920516999\C,9.9620080063,-9.937
 0859575,1.5621765304\N,10.7901854221,-9.4893560749,0.6217025044\F,12.0
 059171416,-11.5202324187,0.1255759294\B,11.5009027636,-10.3524887887,-
 0.4416110739\F,10.6191599938,-10.6719704651,-1.4816158806\H,13.7971043
 965,-10.9385997077,-1.9168416102\H,14.0121521108,-6.5778542602,-1.8942
 145177\H,9.5911333177,-5.7025862095,-0.3115113044\H,9.5602278061,-3.22
 9029608,-0.2057694174\H,11.6852372842,-1.9612597966,0.0913210156\H,13.
 8376164806,-3.1979314919,0.3036761096\H,13.8667388006,-5.6692481876,0.
 2285513977\H,9.8342197505,-6.6520057787,2.0518001131\H,9.779269444,-11
 .0034838786,1.672593432\C,15.5378131017,-8.8275728206,-3.1135085136\C,
 16.0917202897,-7.6527924875,-3.6605667817\C,16.1344030653,-10.06331296
 77,-3.4372321765\C,17.1981985166,-7.7133422652,-4.4991558737\C,17.2408
 83296,-10.1191545518,-4.2759511693\C,17.7786534779,-8.9456525959,-4.81
 13768036\H,15.6442651164,-6.6856503715,-3.430168845\H,15.733857131,-10
 .9883240937,-3.0216574641\H,17.6117449585,-6.7939370763,-4.9145191601\
 H,17.6897670352,-11.0840613533,-4.5128956823\H,18.6470412366,-8.991355
 9803,-5.4691701122\C,8.4707869196,-8.9435561619,3.3938025303\C,7.89922
 53022,-7.7851287177,3.9572773568\C,8.1065789114,-10.1974547166,3.92566
 30299\C,6.9989065111,-7.8789345633,5.011725658\C,7.205842997,-10.28654
 19071,4.9798787632\C,6.6474069874,-9.1288514515,5.5285761353\H,8.15889
 90515,-6.8047485395,3.5569800903\H,8.5393581888,-11.1103225503,3.51550
 6898\H,6.5651297625,-6.9719413051,5.4337058683\H,6.9378599258,-11.2650
 435151,5.3791104937\H,5.9405545509,-9.2006458404,6.3556532218\\Version
 =ES64L-G16RevC.01\HF=-1374.1713437\RMSD=9.808e-09\RMSF=1.135e-06\Dipol
 e=0.5476894,1.6276065,0.6833307\Quadrupole=40.8120461,-46.2168723,5.40
 48262,25.5793587,-12.5338526,-13.6090039\PG=C01 [X(C27H19B1F2N2)]\\@
 The archive entry for this job was punched.


 MATERIAL COPIED FROM ONE SCHOLARLY BOOK WITHOUT CREDIT COMPRISES PLAGIARISM.
 MATERIAL COPIED FROM TWO SCHOLARLY BOOKS COMPRISES AN ESSAY.
 MATERIAL COPIED FROM THREE SCHOLARLY BOOKS COMPRISES A DISSERTATION.
 MATERIAL COPIED FROM FOUR SCHOLARLY BOOKS COMPRISES A FIFTH SCHOLARLY BOOK.

                               -- C&EN, 25 FEB 1980
 Job cpu time:       0 days  0 hours 11 minutes  7.2 seconds.
 Elapsed time:       0 days  3 hours 35 minutes 55.4 seconds.
 File lengths (MBytes):  RWF=   1885 Int=      0 D2E=      0 Chk=     92 Scr=      1
 Normal termination of Gaussian 16 at Wed Feb  2 00:44:09 2022.
