 Entering Gaussian System, Link 0=/lustre1/prg/gaussian/bin/G16_C01_Linda_AVX/g16/g16
 Initial command:
 /lustre1/prg/gaussian/bin/G16_C01_Linda_AVX/g16/l1.exe "/lustre1/prg/webmo/data/webmo20/toliste/4373/scratch/Gau-30415.inp" -scrdir="/lustre1/prg/webmo/data/webmo20/toliste/4373/scratch/"
 Default is to use a total of  16 processors:
                               16 via shared-memory
                                1 via Linda
 Entering Link 1 = /lustre1/prg/gaussian/bin/G16_C01_Linda_AVX/g16/l1.exe PID=     30416.
  
 Copyright (c) 1988-2019, Gaussian, Inc.  All Rights Reserved.
  
 This is part of the Gaussian(R) 16 program.  It is based on
 the Gaussian(R) 09 system (copyright 2009, Gaussian, Inc.),
 the Gaussian(R) 03 system (copyright 2003, Gaussian, Inc.),
 the Gaussian(R) 98 system (copyright 1998, Gaussian, Inc.),
 the Gaussian(R) 94 system (copyright 1995, Gaussian, Inc.),
 the Gaussian 92(TM) system (copyright 1992, Gaussian, Inc.),
 the Gaussian 90(TM) system (copyright 1990, Gaussian, Inc.),
 the Gaussian 88(TM) system (copyright 1988, Gaussian, Inc.),
 the Gaussian 86(TM) system (copyright 1986, Carnegie Mellon
 University), and the Gaussian 82(TM) system (copyright 1983,
 Carnegie Mellon University). Gaussian is a federally registered
 trademark of Gaussian, Inc.
  
 This software contains proprietary and confidential information,
 including trade secrets, belonging to Gaussian, Inc.
  
 This software is provided under written license and may be
 used, copied, transmitted, or stored only in accord with that
 written license.
  
 The following legend is applicable only to US Government
 contracts under FAR:
  
                    RESTRICTED RIGHTS LEGEND
  
 Use, reproduction and disclosure by the US Government is
 subject to restrictions as set forth in subparagraphs (a)
 and (c) of the Commercial Computer Software - Restricted
 Rights clause in FAR 52.227-19.
  
 Gaussian, Inc.
 340 Quinnipiac St., Bldg. 40, Wallingford CT 06492
  
  
 ---------------------------------------------------------------
 Warning -- This program may not be used in any manner that
 competes with the business of Gaussian, Inc. or will provide
 assistance to any competitor of Gaussian, Inc.  The licensee
 of this program is prohibited from giving any competitor of
 Gaussian, Inc. access to this program.  By using this program,
 the user acknowledges that Gaussian, Inc. is engaged in the
 business of creating and licensing software in the field of
 computational chemistry and represents and warrants to the
 licensee that it is not a competitor of Gaussian, Inc. and that
 it will not use this program in any manner prohibited above.
 ---------------------------------------------------------------
  

 Cite this work as:
 Gaussian 16, Revision C.01,
 M. J. Frisch, G. W. Trucks, H. B. Schlegel, G. E. Scuseria, 
 M. A. Robb, J. R. Cheeseman, G. Scalmani, V. Barone, 
 G. A. Petersson, H. Nakatsuji, X. Li, M. Caricato, A. V. Marenich, 
 J. Bloino, B. G. Janesko, R. Gomperts, B. Mennucci, H. P. Hratchian, 
 J. V. Ortiz, A. F. Izmaylov, J. L. Sonnenberg, D. Williams-Young, 
 F. Ding, F. Lipparini, F. Egidi, J. Goings, B. Peng, A. Petrone, 
 T. Henderson, D. Ranasinghe, V. G. Zakrzewski, J. Gao, N. Rega, 
 G. Zheng, W. Liang, M. Hada, M. Ehara, K. Toyota, R. Fukuda, 
 J. Hasegawa, M. Ishida, T. Nakajima, Y. Honda, O. Kitao, H. Nakai, 
 T. Vreven, K. Throssell, J. A. Montgomery, Jr., J. E. Peralta, 
 F. Ogliaro, M. J. Bearpark, J. J. Heyd, E. N. Brothers, K. N. Kudin, 
 V. N. Staroverov, T. A. Keith, R. Kobayashi, J. Normand, 
 K. Raghavachari, A. P. Rendell, J. C. Burant, S. S. Iyengar, 
 J. Tomasi, M. Cossi, J. M. Millam, M. Klene, C. Adamo, R. Cammi, 
 J. W. Ochterski, R. L. Martin, K. Morokuma, O. Farkas, 
 J. B. Foresman, and D. J. Fox, Gaussian, Inc., Wallingford CT, 2019.
 
 ******************************************
 Gaussian 16:  ES64L-G16RevC.01  3-Jul-2019
                31-Jan-2022 
 ******************************************
 %LindaWorkers=fizika142,fizika143,fizika144,fizika145,fizika146,fizika148,fizika
 149,fizika150
 %chk=bodipy.chk
 SetLPE:  input flags=" -opt "Tsnet.Node.lindarsharg: ssh" "
 SetLPE:    new flags=" -opt "Tsnet.Node.lindarsharg: ssh" -opt 'Tsnet.Node.lindarsharg: ssh'  -nodelist 'fizika142.fizika.bullx fizika143.fizika.bullx fizika144.fizika.bullx fizika145.fizika.bullx fizika146.fizika.bullx fizika148.fizika.bullx fizika149.fizika.bullx fizika150.fizika.bullx' -env GAUSS_MDEF=14763950080 -env GAUSS_EXEDIR="/lustre1/prg/gaussian/bin/G16_C01_Linda_AVX/g16/bsd:/lustre1/prg/gaussian/bin/G16_C01_Linda_AVX/g16/private:/lustre1/prg/gaussian/bin/G16_C01_Linda_AVX/g16""
 Will use up to    8 processors via Linda.
 ----------------------------------------------------------------------
 #p m062x cc-pvdz scrf=(cpcm,solvent=DiMethylSulfoxide) td=(nstate=6,ro
 ot=1) opt=tight nosymm density=all int=ultrafine fchk
 ----------------------------------------------------------------------
 1/7=10,18=20,19=15,26=6,38=1/1,3;
 2/9=110,12=2,15=1,17=6,18=5,40=1/2;
 3/5=16,11=9,25=1,30=1,70=2101,71=1,72=21,74=-55,75=-5/1,2,3,8;
 4//1;
 5/5=2,38=5,53=21/2;
 8/6=1,10=1,107=1,108=6/1;
 9/8=1,15=2,30=10,41=6,42=1,70=2/14;
 10/5=4,28=1,31=1/2;
 6/7=2,8=2,9=2,10=2,22=-2/1;
 7/12=6,13=5,14=1,30=1/1,2,3,16;
 1/7=10,18=20,19=15,26=6/3(2);
 2/9=110,15=1/2;
 99//99;
 2/9=110,15=1/2;
 3/5=16,11=9,25=1,30=1,70=2105,71=1,72=21,74=-55,75=-5/1,2,3,8;
 4/5=5,16=3,69=1/1;
 5/5=2,38=5,53=21/2;
 8/6=1,10=1,107=1,108=6/1;
 9/8=1,15=2,30=10,41=6,42=1,49=4,70=2/14;
 10/5=4,28=1,31=1/2;
 7/12=6,13=5,14=1,30=1/1,2,3,16;
 1/7=10,18=20,19=15,26=6/3(-8);
 2/9=110,15=1/2;
 6/7=2,8=2,9=2,10=2,22=-2/1;
 99/9=10/99;
 Leave Link    1 at Mon Jan 31 14:43:02 2022, MaxMem=           0 cpu:               2.7 elap:               0.2
 (Enter /lustre1/prg/gaussian/bin/G16_C01_Linda_AVX/g16/l101.exe)
 --------------------------------------
 BDP-PP-phenyl, optimized R1 in toluene
 --------------------------------------
 Symbolic Z-matrix:
 Charge =  0 Multiplicity = 1
 N                     12.9455  -9.17441  -0.67918 
 C                     14.09211  -9.79984  -0.43656 
 C                     14.92112  -8.98055   0.38003 
 C                     14.18185  -7.80336   0.62711 
 C                     12.9552  -7.92114  -0.03778 
 C                     10.5502  -4.93335   0.10629 
 C                     10.55775  -3.54846   0.20397 
 C                     11.76274  -2.8445    0.25565 
 C                     12.96423  -3.55132   0.17089 
 C                     12.96584  -4.93621   0.07313 
 C                     11.75691  -5.67489   0.07416 
 C                     11.75382  -7.11821  -0.02702 
 C                     10.5506  -7.91836  -0.0066 
 C                     9.34192  -7.79806   0.68993 
 C                     8.59349  -8.97327   0.46128 
 C                     9.39914  -9.79405  -0.37694 
 N                     10.54064  -9.17133  -0.6487 
 F                     11.72933  -11.0663  -1.55738 
 B                     11.73184  -9.68129  -1.49992 
 F                     11.71659  -9.10067  -2.76128 
 H                     14.27987  -10.78149  -0.86393 
 H                     14.46594  -6.98524   1.28009 
 H                     9.59604  -5.44717   0.01644 
 H                     9.60942  -3.01042   0.22578 
 H                     11.76509  -1.75722   0.33363 
 H                     13.91406  -3.0155    0.16644 
 H                     13.91597  -5.45231  -0.04277 
 H                     9.07672  -6.97952   1.35025 
 H                     9.19826  -10.77517  -0.79954 
 C                     16.26198  -9.31157   0.84175 
 C                     17.04739  -8.35407   1.51166 
 C                     16.80494  -10.59503   0.63603 
 C                     18.32402  -8.66959   1.96096 
 C                     18.08196  -10.9071   1.08621 
 C                     18.84829  -9.94716   1.75123 
 H                     16.65425  -7.34973   1.67147 
 H                     16.21613  -11.35892   0.12743 
 H                     18.91722  -7.91351   2.47621 
 H                     18.48302  -11.90725   0.91962 
 H                     19.85033  -10.19344   2.10359 
 C                     7.26416  -9.30139   0.95701 
 C                     6.7103   -10.5813   0.75828 
 C                     6.50104  -8.34468   1.65337 
 C                     5.44429  -10.89067   1.24025 
 C                     5.2354   -8.6575    2.13449 
 C                     4.70004  -9.93148   1.93105 
 H                     7.28185  -11.34461   0.22951 
 H                     6.90278  -7.34312   1.80911 
 H                     5.0345   -11.88804   1.07833 
 H                     4.65946  -7.90206   2.6699 
 H                     3.70657  -10.17557   2.30829 
 
 ITRead=  0  0  0  0  0  0  0  0  0  0  0  0  0  0  0  0  0  0  0  0
 ITRead=  0  0  0  0  0  0  0  0  0  0  0  0  0  0  0  0  0  0  0  0
 ITRead=  0  0  0  0  0  0  0  0  0  0  0
 MicOpt= -1 -1 -1 -1 -1 -1 -1 -1 -1 -1 -1 -1 -1 -1 -1 -1 -1 -1 -1 -1
 MicOpt= -1 -1 -1 -1 -1 -1 -1 -1 -1 -1 -1 -1 -1 -1 -1 -1 -1 -1 -1 -1
 MicOpt= -1 -1 -1 -1 -1 -1 -1 -1 -1 -1 -1
 NAtoms=     51 NQM=       51 NQMF=       0 NMMI=      0 NMMIF=      0
                NMic=       0 NMicF=      0.
                    Isotopes and Nuclear Properties:
 (Nuclear quadrupole moments (NQMom) in fm**2, nuclear magnetic moments (NMagM)
  in nuclear magnetons)

  Atom         1           2           3           4           5           6           7           8           9          10
 IAtWgt=          14          12          12          12          12          12          12          12          12          12
 AtmWgt=  14.0030740  12.0000000  12.0000000  12.0000000  12.0000000  12.0000000  12.0000000  12.0000000  12.0000000  12.0000000
 NucSpn=           2           0           0           0           0           0           0           0           0           0
 AtZEff=  -0.0000000  -0.0000000  -0.0000000  -0.0000000  -0.0000000  -0.0000000  -0.0000000  -0.0000000  -0.0000000  -0.0000000
 NQMom=    2.0440000   0.0000000   0.0000000   0.0000000   0.0000000   0.0000000   0.0000000   0.0000000   0.0000000   0.0000000
 NMagM=    0.4037610   0.0000000   0.0000000   0.0000000   0.0000000   0.0000000   0.0000000   0.0000000   0.0000000   0.0000000
 AtZNuc=   7.0000000   6.0000000   6.0000000   6.0000000   6.0000000   6.0000000   6.0000000   6.0000000   6.0000000   6.0000000

  Atom        11          12          13          14          15          16          17          18          19          20
 IAtWgt=          12          12          12          12          12          12          14          19          11          19
 AtmWgt=  12.0000000  12.0000000  12.0000000  12.0000000  12.0000000  12.0000000  14.0030740  18.9984032  11.0093053  18.9984032
 NucSpn=           0           0           0           0           0           0           2           1           3           1
 AtZEff=  -0.0000000  -0.0000000  -0.0000000  -0.0000000  -0.0000000  -0.0000000  -0.0000000  -0.0000000  -0.0000000  -0.0000000
 NQMom=    0.0000000   0.0000000   0.0000000   0.0000000   0.0000000   0.0000000   2.0440000   0.0000000   4.0590000   0.0000000
 NMagM=    0.0000000   0.0000000   0.0000000   0.0000000   0.0000000   0.0000000   0.4037610   2.6288670   2.6886370   2.6288670
 AtZNuc=   6.0000000   6.0000000   6.0000000   6.0000000   6.0000000   6.0000000   7.0000000   9.0000000   5.0000000   9.0000000

  Atom        21          22          23          24          25          26          27          28          29          30
 IAtWgt=           1           1           1           1           1           1           1           1           1          12
 AtmWgt=   1.0078250   1.0078250   1.0078250   1.0078250   1.0078250   1.0078250   1.0078250   1.0078250   1.0078250  12.0000000
 NucSpn=           1           1           1           1           1           1           1           1           1           0
 AtZEff=  -0.0000000  -0.0000000  -0.0000000  -0.0000000  -0.0000000  -0.0000000  -0.0000000  -0.0000000  -0.0000000  -0.0000000
 NQMom=    0.0000000   0.0000000   0.0000000   0.0000000   0.0000000   0.0000000   0.0000000   0.0000000   0.0000000   0.0000000
 NMagM=    2.7928460   2.7928460   2.7928460   2.7928460   2.7928460   2.7928460   2.7928460   2.7928460   2.7928460   0.0000000
 AtZNuc=   1.0000000   1.0000000   1.0000000   1.0000000   1.0000000   1.0000000   1.0000000   1.0000000   1.0000000   6.0000000

  Atom        31          32          33          34          35          36          37          38          39          40
 IAtWgt=          12          12          12          12          12           1           1           1           1           1
 AtmWgt=  12.0000000  12.0000000  12.0000000  12.0000000  12.0000000   1.0078250   1.0078250   1.0078250   1.0078250   1.0078250
 NucSpn=           0           0           0           0           0           1           1           1           1           1
 AtZEff=  -0.0000000  -0.0000000  -0.0000000  -0.0000000  -0.0000000  -0.0000000  -0.0000000  -0.0000000  -0.0000000  -0.0000000
 NQMom=    0.0000000   0.0000000   0.0000000   0.0000000   0.0000000   0.0000000   0.0000000   0.0000000   0.0000000   0.0000000
 NMagM=    0.0000000   0.0000000   0.0000000   0.0000000   0.0000000   2.7928460   2.7928460   2.7928460   2.7928460   2.7928460
 AtZNuc=   6.0000000   6.0000000   6.0000000   6.0000000   6.0000000   1.0000000   1.0000000   1.0000000   1.0000000   1.0000000

  Atom        41          42          43          44          45          46          47          48          49          50
 IAtWgt=          12          12          12          12          12          12           1           1           1           1
 AtmWgt=  12.0000000  12.0000000  12.0000000  12.0000000  12.0000000  12.0000000   1.0078250   1.0078250   1.0078250   1.0078250
 NucSpn=           0           0           0           0           0           0           1           1           1           1
 AtZEff=  -0.0000000  -0.0000000  -0.0000000  -0.0000000  -0.0000000  -0.0000000  -0.0000000  -0.0000000  -0.0000000  -0.0000000
 NQMom=    0.0000000   0.0000000   0.0000000   0.0000000   0.0000000   0.0000000   0.0000000   0.0000000   0.0000000   0.0000000
 NMagM=    0.0000000   0.0000000   0.0000000   0.0000000   0.0000000   0.0000000   2.7928460   2.7928460   2.7928460   2.7928460
 AtZNuc=   6.0000000   6.0000000   6.0000000   6.0000000   6.0000000   6.0000000   1.0000000   1.0000000   1.0000000   1.0000000

  Atom        51
 IAtWgt=           1
 AtmWgt=   1.0078250
 NucSpn=           1
 AtZEff=  -0.0000000
 NQMom=    0.0000000
 NMagM=    2.7928460
 AtZNuc=   1.0000000
 Leave Link  101 at Mon Jan 31 14:43:03 2022, MaxMem= 14763950080 cpu:              13.5 elap:               0.9
 (Enter /lustre1/prg/gaussian/bin/G16_C01_Linda_AVX/g16/l103.exe)

 GradGradGradGradGradGradGradGradGradGradGradGradGradGradGradGradGradGrad
 Berny optimization.
 Initialization pass.
                           ----------------------------
                           !    Initial Parameters    !
                           ! (Angstroms and Degrees)  !
 --------------------------                            --------------------------
 ! Name  Definition              Value          Derivative Info.                !
 --------------------------------------------------------------------------------
 ! R1    R(1,2)                  1.3284         estimate D2E/DX2                !
 ! R2    R(1,5)                  1.4079         estimate D2E/DX2                !
 ! R3    R(1,19)                 1.5503         estimate D2E/DX2                !
 ! R4    R(2,3)                  1.4231         estimate D2E/DX2                !
 ! R5    R(2,21)                 1.087          estimate D2E/DX2                !
 ! R6    R(3,4)                  1.4119         estimate D2E/DX2                !
 ! R7    R(3,30)                 1.4563         estimate D2E/DX2                !
 ! R8    R(4,5)                  1.4002         estimate D2E/DX2                !
 ! R9    R(4,22)                 1.0846         estimate D2E/DX2                !
 ! R10   R(5,12)                 1.445          estimate D2E/DX2                !
 ! R11   R(6,7)                  1.3883         estimate D2E/DX2                !
 ! R12   R(6,11)                 1.4167         estimate D2E/DX2                !
 ! R13   R(6,23)                 1.0874         estimate D2E/DX2                !
 ! R14   R(7,8)                  1.3965         estimate D2E/DX2                !
 ! R15   R(7,24)                 1.0905         estimate D2E/DX2                !
 ! R16   R(8,9)                  1.3966         estimate D2E/DX2                !
 ! R17   R(8,25)                 1.0901         estimate D2E/DX2                !
 ! R18   R(9,10)                 1.3883         estimate D2E/DX2                !
 ! R19   R(9,26)                 1.0905         estimate D2E/DX2                !
 ! R20   R(10,11)                1.4167         estimate D2E/DX2                !
 ! R21   R(10,27)                1.0875         estimate D2E/DX2                !
 ! R22   R(11,12)                1.4469         estimate D2E/DX2                !
 ! R23   R(12,13)                1.4451         estimate D2E/DX2                !
 ! R24   R(13,14)                1.4002         estimate D2E/DX2                !
 ! R25   R(13,17)                1.408          estimate D2E/DX2                !
 ! R26   R(14,15)                1.4119         estimate D2E/DX2                !
 ! R27   R(14,28)                1.0846         estimate D2E/DX2                !
 ! R28   R(15,16)                1.4232         estimate D2E/DX2                !
 ! R29   R(15,41)                1.4562         estimate D2E/DX2                !
 ! R30   R(16,17)                1.3284         estimate D2E/DX2                !
 ! R31   R(16,29)                1.087          estimate D2E/DX2                !
 ! R32   R(17,19)                1.5504         estimate D2E/DX2                !
 ! R33   R(18,19)                1.3862         estimate D2E/DX2                !
 ! R34   R(19,20)                1.3887         estimate D2E/DX2                !
 ! R35   R(30,31)                1.408          estimate D2E/DX2                !
 ! R36   R(30,32)                1.4087         estimate D2E/DX2                !
 ! R37   R(31,33)                1.3897         estimate D2E/DX2                !
 ! R38   R(31,36)                1.0903         estimate D2E/DX2                !
 ! R39   R(32,34)                1.3895         estimate D2E/DX2                !
 ! R40   R(32,37)                1.0904         estimate D2E/DX2                !
 ! R41   R(33,35)                1.3968         estimate D2E/DX2                !
 ! R42   R(33,38)                1.0904         estimate D2E/DX2                !
 ! R43   R(34,35)                1.3968         estimate D2E/DX2                !
 ! R44   R(34,39)                1.0904         estimate D2E/DX2                !
 ! R45   R(35,40)                1.0904         estimate D2E/DX2                !
 ! R46   R(41,42)                1.4087         estimate D2E/DX2                !
 ! R47   R(41,43)                1.408          estimate D2E/DX2                !
 ! R48   R(42,44)                1.3895         estimate D2E/DX2                !
 ! R49   R(42,47)                1.0904         estimate D2E/DX2                !
 ! R50   R(43,45)                1.3897         estimate D2E/DX2                !
 ! R51   R(43,48)                1.0903         estimate D2E/DX2                !
 ! R52   R(44,46)                1.3968         estimate D2E/DX2                !
 ! R53   R(44,49)                1.0904         estimate D2E/DX2                !
 ! R54   R(45,46)                1.3968         estimate D2E/DX2                !
 ! R55   R(45,50)                1.0904         estimate D2E/DX2                !
 ! R56   R(46,51)                1.0904         estimate D2E/DX2                !
 ! A1    A(2,1,5)              109.2649         estimate D2E/DX2                !
 ! A2    A(2,1,19)             128.2032         estimate D2E/DX2                !
 ! A3    A(5,1,19)             122.5218         estimate D2E/DX2                !
 ! A4    A(1,2,3)              109.667          estimate D2E/DX2                !
 ! A5    A(1,2,21)             120.1629         estimate D2E/DX2                !
 ! A6    A(3,2,21)             130.1571         estimate D2E/DX2                !
 ! A7    A(2,3,4)              105.9861         estimate D2E/DX2                !
 ! A8    A(2,3,30)             125.975          estimate D2E/DX2                !
 ! A9    A(4,3,30)             128.0368         estimate D2E/DX2                !
 ! A10   A(3,4,5)              107.7865         estimate D2E/DX2                !
 ! A11   A(3,4,22)             126.664          estimate D2E/DX2                !
 ! A12   A(5,4,22)             125.3652         estimate D2E/DX2                !
 ! A13   A(1,5,4)              107.2925         estimate D2E/DX2                !
 ! A14   A(1,5,12)             119.4906         estimate D2E/DX2                !
 ! A15   A(4,5,12)             132.6913         estimate D2E/DX2                !
 ! A16   A(7,6,11)             121.2705         estimate D2E/DX2                !
 ! A17   A(7,6,23)             118.8109         estimate D2E/DX2                !
 ! A18   A(11,6,23)            119.8799         estimate D2E/DX2                !
 ! A19   A(6,7,8)              120.6726         estimate D2E/DX2                !
 ! A20   A(6,7,24)             119.2623         estimate D2E/DX2                !
 ! A21   A(8,7,24)             120.0592         estimate D2E/DX2                !
 ! A22   A(7,8,9)              119.0103         estimate D2E/DX2                !
 ! A23   A(7,8,25)             120.4845         estimate D2E/DX2                !
 ! A24   A(9,8,25)             120.4845         estimate D2E/DX2                !
 ! A25   A(8,9,10)             120.6724         estimate D2E/DX2                !
 ! A26   A(8,9,26)             120.0591         estimate D2E/DX2                !
 ! A27   A(10,9,26)            119.2626         estimate D2E/DX2                !
 ! A28   A(9,10,11)            121.2691         estimate D2E/DX2                !
 ! A29   A(9,10,27)            118.8119         estimate D2E/DX2                !
 ! A30   A(11,10,27)           119.8804         estimate D2E/DX2                !
 ! A31   A(6,11,10)            116.9967         estimate D2E/DX2                !
 ! A32   A(6,11,12)            121.4603         estimate D2E/DX2                !
 ! A33   A(10,11,12)           121.4589         estimate D2E/DX2                !
 ! A34   A(5,12,11)            123.5752         estimate D2E/DX2                !
 ! A35   A(5,12,13)            112.6229         estimate D2E/DX2                !
 ! A36   A(11,12,13)           123.5814         estimate D2E/DX2                !
 ! A37   A(12,13,14)           132.7018         estimate D2E/DX2                !
 ! A38   A(12,13,17)           119.4844         estimate D2E/DX2                !
 ! A39   A(14,13,17)           107.2906         estimate D2E/DX2                !
 ! A40   A(13,14,15)           107.7885         estimate D2E/DX2                !
 ! A41   A(13,14,28)           125.364          estimate D2E/DX2                !
 ! A42   A(15,14,28)           126.6654         estimate D2E/DX2                !
 ! A43   A(14,15,16)           105.9826         estimate D2E/DX2                !
 ! A44   A(14,15,41)           128.0477         estimate D2E/DX2                !
 ! A45   A(16,15,41)           125.9675         estimate D2E/DX2                !
 ! A46   A(15,16,17)           109.6688         estimate D2E/DX2                !
 ! A47   A(15,16,29)           130.1609         estimate D2E/DX2                !
 ! A48   A(17,16,29)           120.1579         estimate D2E/DX2                !
 ! A49   A(13,17,16)           109.2662         estimate D2E/DX2                !
 ! A50   A(13,17,19)           122.5262         estimate D2E/DX2                !
 ! A51   A(16,17,19)           128.1967         estimate D2E/DX2                !
 ! A52   A(1,19,17)            101.7287         estimate D2E/DX2                !
 ! A53   A(1,19,18)            110.4892         estimate D2E/DX2                !
 ! A54   A(1,19,20)            110.6562         estimate D2E/DX2                !
 ! A55   A(17,19,18)           110.4881         estimate D2E/DX2                !
 ! A56   A(17,19,20)           110.6555         estimate D2E/DX2                !
 ! A57   A(18,19,20)           112.3391         estimate D2E/DX2                !
 ! A58   A(3,30,31)            120.6568         estimate D2E/DX2                !
 ! A59   A(3,30,32)            121.0438         estimate D2E/DX2                !
 ! A60   A(31,30,32)           118.2989         estimate D2E/DX2                !
 ! A61   A(30,31,33)           120.7886         estimate D2E/DX2                !
 ! A62   A(30,31,36)           119.671          estimate D2E/DX2                !
 ! A63   A(33,31,36)           119.5375         estimate D2E/DX2                !
 ! A64   A(30,32,34)           120.7659         estimate D2E/DX2                !
 ! A65   A(30,32,37)           119.8865         estimate D2E/DX2                !
 ! A66   A(34,32,37)           119.3444         estimate D2E/DX2                !
 ! A67   A(31,33,35)           120.2603         estimate D2E/DX2                !
 ! A68   A(31,33,38)           119.6764         estimate D2E/DX2                !
 ! A69   A(35,33,38)           120.063          estimate D2E/DX2                !
 ! A70   A(32,34,35)           120.2727         estimate D2E/DX2                !
 ! A71   A(32,34,39)           119.6398         estimate D2E/DX2                !
 ! A72   A(35,34,39)           120.0873         estimate D2E/DX2                !
 ! A73   A(33,35,34)           119.6133         estimate D2E/DX2                !
 ! A74   A(33,35,40)           120.1994         estimate D2E/DX2                !
 ! A75   A(34,35,40)           120.1872         estimate D2E/DX2                !
 ! A76   A(15,41,42)           121.0391         estimate D2E/DX2                !
 ! A77   A(15,41,43)           120.6645         estimate D2E/DX2                !
 ! A78   A(42,41,43)           118.2959         estimate D2E/DX2                !
 ! A79   A(41,42,44)           120.7689         estimate D2E/DX2                !
 ! A80   A(41,42,47)           119.8919         estimate D2E/DX2                !
 ! A81   A(44,42,47)           119.3363         estimate D2E/DX2                !
 ! A82   A(41,43,45)           120.7891         estimate D2E/DX2                !
 ! A83   A(41,43,48)           119.6768         estimate D2E/DX2                !
 ! A84   A(45,43,48)           119.5314         estimate D2E/DX2                !
 ! A85   A(42,44,46)           120.2717         estimate D2E/DX2                !
 ! A86   A(42,44,49)           119.6406         estimate D2E/DX2                !
 ! A87   A(46,44,49)           120.0875         estimate D2E/DX2                !
 ! A88   A(43,45,46)           120.262          estimate D2E/DX2                !
 ! A89   A(43,45,50)           119.6751         estimate D2E/DX2                !
 ! A90   A(46,45,50)           120.0626         estimate D2E/DX2                !
 ! A91   A(44,46,45)           119.6122         estimate D2E/DX2                !
 ! A92   A(44,46,51)           120.1883         estimate D2E/DX2                !
 ! A93   A(45,46,51)           120.1995         estimate D2E/DX2                !
 ! D1    D(5,1,2,3)             -0.1655         estimate D2E/DX2                !
 ! D2    D(5,1,2,21)          -178.9807         estimate D2E/DX2                !
 ! D3    D(19,1,2,3)          -179.0177         estimate D2E/DX2                !
 ! D4    D(19,1,2,21)            2.167          estimate D2E/DX2                !
 ! D5    D(2,1,5,4)             -0.1967         estimate D2E/DX2                !
 ! D6    D(2,1,5,12)          -172.9086         estimate D2E/DX2                !
 ! D7    D(19,1,5,4)           178.7337         estimate D2E/DX2                !
 ! D8    D(19,1,5,12)            6.0217         estimate D2E/DX2                !
 ! D9    D(2,1,19,17)          140.3064         estimate D2E/DX2                !
 ! D10   D(2,1,19,18)           22.9711         estimate D2E/DX2                !
 ! D11   D(2,1,19,20)         -102.0939         estimate D2E/DX2                !
 ! D12   D(5,1,19,17)          -38.4086         estimate D2E/DX2                !
 ! D13   D(5,1,19,18)         -155.7439         estimate D2E/DX2                !
 ! D14   D(5,1,19,20)           79.1911         estimate D2E/DX2                !
 ! D15   D(1,2,3,4)              0.4574         estimate D2E/DX2                !
 ! D16   D(1,2,3,30)          -179.0483         estimate D2E/DX2                !
 ! D17   D(21,2,3,4)           179.1172         estimate D2E/DX2                !
 ! D18   D(21,2,3,30)           -0.3886         estimate D2E/DX2                !
 ! D19   D(2,3,4,5)             -0.5678         estimate D2E/DX2                !
 ! D20   D(2,3,4,22)           174.6843         estimate D2E/DX2                !
 ! D21   D(30,3,4,5)           178.9244         estimate D2E/DX2                !
 ! D22   D(30,3,4,22)           -5.8235         estimate D2E/DX2                !
 ! D23   D(2,3,30,31)          172.3184         estimate D2E/DX2                !
 ! D24   D(2,3,30,32)           -7.935          estimate D2E/DX2                !
 ! D25   D(4,3,30,31)           -7.0783         estimate D2E/DX2                !
 ! D26   D(4,3,30,32)          172.6683         estimate D2E/DX2                !
 ! D27   D(3,4,5,1)              0.4792         estimate D2E/DX2                !
 ! D28   D(3,4,5,12)           171.839          estimate D2E/DX2                !
 ! D29   D(22,4,5,1)          -174.8506         estimate D2E/DX2                !
 ! D30   D(22,4,5,12)           -3.4909         estimate D2E/DX2                !
 ! D31   D(1,5,12,11)         -153.2526         estimate D2E/DX2                !
 ! D32   D(1,5,12,13)           31.9771         estimate D2E/DX2                !
 ! D33   D(4,5,12,11)           36.2325         estimate D2E/DX2                !
 ! D34   D(4,5,12,13)         -138.5378         estimate D2E/DX2                !
 ! D35   D(11,6,7,8)             0.8552         estimate D2E/DX2                !
 ! D36   D(11,6,7,24)          179.9822         estimate D2E/DX2                !
 ! D37   D(23,6,7,8)          -176.8789         estimate D2E/DX2                !
 ! D38   D(23,6,7,24)            2.248          estimate D2E/DX2                !
 ! D39   D(7,6,11,10)           -3.3153         estimate D2E/DX2                !
 ! D40   D(7,6,11,12)          179.9748         estimate D2E/DX2                !
 ! D41   D(23,6,11,10)         174.395          estimate D2E/DX2                !
 ! D42   D(23,6,11,12)          -2.3149         estimate D2E/DX2                !
 ! D43   D(6,7,8,9)              1.7289         estimate D2E/DX2                !
 ! D44   D(6,7,8,25)          -179.9205         estimate D2E/DX2                !
 ! D45   D(24,7,8,9)          -177.3911         estimate D2E/DX2                !
 ! D46   D(24,7,8,25)            0.9595         estimate D2E/DX2                !
 ! D47   D(7,8,9,10)            -1.7307         estimate D2E/DX2                !
 ! D48   D(7,8,9,26)           177.3809         estimate D2E/DX2                !
 ! D49   D(25,8,9,10)          179.9187         estimate D2E/DX2                !
 ! D50   D(25,8,9,26)           -0.9697         estimate D2E/DX2                !
 ! D51   D(8,9,10,11)           -0.8516         estimate D2E/DX2                !
 ! D52   D(8,9,10,27)          176.8869         estimate D2E/DX2                !
 ! D53   D(26,9,10,11)        -179.9702         estimate D2E/DX2                !
 ! D54   D(26,9,10,27)          -2.2317         estimate D2E/DX2                !
 ! D55   D(9,10,11,6)            3.3134         estimate D2E/DX2                !
 ! D56   D(9,10,11,12)        -179.9766         estimate D2E/DX2                !
 ! D57   D(27,10,11,6)        -174.4012         estimate D2E/DX2                !
 ! D58   D(27,10,11,12)          2.3087         estimate D2E/DX2                !
 ! D59   D(6,11,12,5)         -178.777          estimate D2E/DX2                !
 ! D60   D(6,11,12,13)          -4.5732         estimate D2E/DX2                !
 ! D61   D(10,11,12,5)           4.6599         estimate D2E/DX2                !
 ! D62   D(10,11,12,13)        178.8637         estimate D2E/DX2                !
 ! D63   D(5,12,13,14)         138.5248         estimate D2E/DX2                !
 ! D64   D(5,12,13,17)         -32.0122         estimate D2E/DX2                !
 ! D65   D(11,12,13,14)        -36.2452         estimate D2E/DX2                !
 ! D66   D(11,12,13,17)        153.2179         estimate D2E/DX2                !
 ! D67   D(12,13,14,15)       -171.8702         estimate D2E/DX2                !
 ! D68   D(12,13,14,28)          3.4891         estimate D2E/DX2                !
 ! D69   D(17,13,14,15)         -0.4908         estimate D2E/DX2                !
 ! D70   D(17,13,14,28)        174.8685         estimate D2E/DX2                !
 ! D71   D(12,13,17,16)        172.9373         estimate D2E/DX2                !
 ! D72   D(12,13,17,19)         -5.9485         estimate D2E/DX2                !
 ! D73   D(14,13,17,16)          0.2072         estimate D2E/DX2                !
 ! D74   D(14,13,17,19)       -178.6786         estimate D2E/DX2                !
 ! D75   D(13,14,15,16)          0.5763         estimate D2E/DX2                !
 ! D76   D(13,14,15,41)       -178.9104         estimate D2E/DX2                !
 ! D77   D(28,14,15,16)       -174.7056         estimate D2E/DX2                !
 ! D78   D(28,14,15,41)          5.8078         estimate D2E/DX2                !
 ! D79   D(14,15,16,17)         -0.4595         estimate D2E/DX2                !
 ! D80   D(14,15,16,29)       -179.1546         estimate D2E/DX2                !
 ! D81   D(41,15,16,17)        179.041          estimate D2E/DX2                !
 ! D82   D(41,15,16,29)          0.3459         estimate D2E/DX2                !
 ! D83   D(14,15,41,42)       -173.0047         estimate D2E/DX2                !
 ! D84   D(14,15,41,43)          6.7562         estimate D2E/DX2                !
 ! D85   D(16,15,41,42)          7.6051         estimate D2E/DX2                !
 ! D86   D(16,15,41,43)       -172.634          estimate D2E/DX2                !
 ! D87   D(15,16,17,13)          0.1603         estimate D2E/DX2                !
 ! D88   D(15,16,17,19)        178.9649         estimate D2E/DX2                !
 ! D89   D(29,16,17,13)        179.007          estimate D2E/DX2                !
 ! D90   D(29,16,17,19)         -2.1885         estimate D2E/DX2                !
 ! D91   D(13,17,19,1)          38.3708         estimate D2E/DX2                !
 ! D92   D(13,17,19,18)        155.7069         estimate D2E/DX2                !
 ! D93   D(13,17,19,20)        -79.2294         estimate D2E/DX2                !
 ! D94   D(16,17,19,1)        -140.2907         estimate D2E/DX2                !
 ! D95   D(16,17,19,18)        -22.9546         estimate D2E/DX2                !
 ! D96   D(16,17,19,20)        102.1091         estimate D2E/DX2                !
 ! D97   D(3,30,31,33)         179.5871         estimate D2E/DX2                !
 ! D98   D(3,30,31,36)          -1.0368         estimate D2E/DX2                !
 ! D99   D(32,30,31,33)         -0.1663         estimate D2E/DX2                !
 ! D100  D(32,30,31,36)        179.2098         estimate D2E/DX2                !
 ! D101  D(3,30,32,34)        -179.6061         estimate D2E/DX2                !
 ! D102  D(3,30,32,37)          -0.2542         estimate D2E/DX2                !
 ! D103  D(31,30,32,34)          0.1463         estimate D2E/DX2                !
 ! D104  D(31,30,32,37)        179.4983         estimate D2E/DX2                !
 ! D105  D(30,31,33,35)          0.0824         estimate D2E/DX2                !
 ! D106  D(30,31,33,38)        179.8969         estimate D2E/DX2                !
 ! D107  D(36,31,33,35)       -179.2945         estimate D2E/DX2                !
 ! D108  D(36,31,33,38)          0.52           estimate D2E/DX2                !
 ! D109  D(30,32,34,35)         -0.0424         estimate D2E/DX2                !
 ! D110  D(30,32,34,39)        179.8229         estimate D2E/DX2                !
 ! D111  D(37,32,34,35)       -179.3978         estimate D2E/DX2                !
 ! D112  D(37,32,34,39)          0.4675         estimate D2E/DX2                !
 ! D113  D(31,33,35,34)          0.0254         estimate D2E/DX2                !
 ! D114  D(31,33,35,40)        179.9589         estimate D2E/DX2                !
 ! D115  D(38,33,35,34)       -179.7884         estimate D2E/DX2                !
 ! D116  D(38,33,35,40)          0.1451         estimate D2E/DX2                !
 ! D117  D(32,34,35,33)         -0.0453         estimate D2E/DX2                !
 ! D118  D(32,34,35,40)       -179.9788         estimate D2E/DX2                !
 ! D119  D(39,34,35,33)       -179.91           estimate D2E/DX2                !
 ! D120  D(39,34,35,40)          0.1565         estimate D2E/DX2                !
 ! D121  D(15,41,42,44)        179.6373         estimate D2E/DX2                !
 ! D122  D(15,41,42,47)          0.2615         estimate D2E/DX2                !
 ! D123  D(43,41,42,44)         -0.1292         estimate D2E/DX2                !
 ! D124  D(43,41,42,47)       -179.505          estimate D2E/DX2                !
 ! D125  D(15,41,43,45)       -179.6149         estimate D2E/DX2                !
 ! D126  D(15,41,43,48)          0.99           estimate D2E/DX2                !
 ! D127  D(42,41,43,45)          0.1525         estimate D2E/DX2                !
 ! D128  D(42,41,43,48)       -179.2427         estimate D2E/DX2                !
 ! D129  D(41,42,44,46)          0.0348         estimate D2E/DX2                !
 ! D130  D(41,42,44,49)       -179.8356         estimate D2E/DX2                !
 ! D131  D(47,42,44,46)        179.4141         estimate D2E/DX2                !
 ! D132  D(47,42,44,49)         -0.4564         estimate D2E/DX2                !
 ! D133  D(41,43,45,46)         -0.0814         estimate D2E/DX2                !
 ! D134  D(41,43,45,50)       -179.896          estimate D2E/DX2                !
 ! D135  D(48,43,45,46)        179.3146         estimate D2E/DX2                !
 ! D136  D(48,43,45,50)         -0.5            estimate D2E/DX2                !
 ! D137  D(42,44,46,45)          0.0397         estimate D2E/DX2                !
 ! D138  D(42,44,46,51)        179.9742         estimate D2E/DX2                !
 ! D139  D(49,44,46,45)        179.9095         estimate D2E/DX2                !
 ! D140  D(49,44,46,51)         -0.156          estimate D2E/DX2                !
 ! D141  D(43,45,46,44)         -0.0165         estimate D2E/DX2                !
 ! D142  D(43,45,46,51)       -179.951          estimate D2E/DX2                !
 ! D143  D(50,45,46,44)        179.7974         estimate D2E/DX2                !
 ! D144  D(50,45,46,51)         -0.1372         estimate D2E/DX2                !
 --------------------------------------------------------------------------------
 Trust Radius=3.00D-01 FncErr=5.00D-06 GrdErr=5.00D-06 EigMax=2.50D+02 EigMin=1.00D-04
 Number of steps in this run=    303 maximum allowed number of steps=    306.
 GradGradGradGradGradGradGradGradGradGradGradGradGradGradGradGradGradGrad

 Leave Link  103 at Mon Jan 31 14:43:03 2022, MaxMem= 14763950080 cpu:               0.7 elap:               0.1
 (Enter /lustre1/prg/gaussian/bin/G16_C01_Linda_AVX/g16/l202.exe)
 Symmetry turned off by external request.
 Stoichiometry    C27H19BF2N2
 Framework group  C1[X(C27H19BF2N2)]
 Deg. of freedom   147
 Full point group                 C1      NOp   1
                          Input orientation:                          
 ---------------------------------------------------------------------
 Center     Atomic      Atomic             Coordinates (Angstroms)
 Number     Number       Type             X           Y           Z
 ---------------------------------------------------------------------
      1          7           0       12.945495   -9.174412   -0.679183
      2          6           0       14.092112   -9.799842   -0.436560
      3          6           0       14.921122   -8.980550    0.380030
      4          6           0       14.181846   -7.803357    0.627113
      5          6           0       12.955204   -7.921139   -0.037781
      6          6           0       10.550196   -4.933348    0.106292
      7          6           0       10.557751   -3.548462    0.203967
      8          6           0       11.762738   -2.844497    0.255645
      9          6           0       12.964232   -3.551316    0.170888
     10          6           0       12.965839   -4.936211    0.073125
     11          6           0       11.756912   -5.674888    0.074155
     12          6           0       11.753822   -7.118209   -0.027018
     13          6           0       10.550601   -7.918360   -0.006596
     14          6           0        9.341922   -7.798056    0.689929
     15          6           0        8.593491   -8.973265    0.461283
     16          6           0        9.399142   -9.794053   -0.376936
     17          7           0       10.540639   -9.171330   -0.648696
     18          9           0       11.729325  -11.066300   -1.557376
     19          5           0       11.731838   -9.681291   -1.499920
     20          9           0       11.716587   -9.100669   -2.761279
     21          1           0       14.279872  -10.781493   -0.863932
     22          1           0       14.465943   -6.985240    1.280090
     23          1           0        9.596038   -5.447170    0.016440
     24          1           0        9.609417   -3.010424    0.225776
     25          1           0       11.765089   -1.757224    0.333630
     26          1           0       13.914059   -3.015500    0.166440
     27          1           0       13.915973   -5.452313   -0.042773
     28          1           0        9.076724   -6.979521    1.350250
     29          1           0        9.198265  -10.775168   -0.799536
     30          6           0       16.261984   -9.311568    0.841745
     31          6           0       17.047392   -8.354070    1.511655
     32          6           0       16.804937  -10.595026    0.636028
     33          6           0       18.324017   -8.669587    1.960955
     34          6           0       18.081955  -10.907098    1.086208
     35          6           0       18.848294   -9.947157    1.751233
     36          1           0       16.654251   -7.349732    1.671466
     37          1           0       16.216128  -11.358916    0.127430
     38          1           0       18.917216   -7.913511    2.476214
     39          1           0       18.483020  -11.907252    0.919624
     40          1           0       19.850327  -10.193439    2.103589
     41          6           0        7.264162   -9.301392    0.957008
     42          6           0        6.710301  -10.581301    0.758278
     43          6           0        6.501042   -8.344682    1.653369
     44          6           0        5.444286  -10.890665    1.240246
     45          6           0        5.235403   -8.657499    2.134492
     46          6           0        4.700043   -9.931480    1.931050
     47          1           0        7.281854  -11.344612    0.229513
     48          1           0        6.902777   -7.343117    1.809108
     49          1           0        5.034503  -11.888042    1.078327
     50          1           0        4.659458   -7.902060    2.669901
     51          1           0        3.706572  -10.175574    2.308294
 ---------------------------------------------------------------------
 Rotational constants (GHZ):           0.1897419           0.0762903           0.0617891
 Leave Link  202 at Mon Jan 31 14:43:03 2022, MaxMem= 14763950080 cpu:               0.3 elap:               0.0
 (Enter /lustre1/prg/gaussian/bin/G16_C01_Linda_AVX/g16/l301.exe)
 Standard basis: CC-pVDZ (5D, 7F)
 Ernie: Thresh=  0.10000D-02 Tol=  0.10000D-05 Strict=F.
 Ernie:  64 primitive shells out of 799 were deleted.
   543 basis functions,  1189 primitive gaussians,   575 cartesian basis functions
   109 alpha electrons      109 beta electrons
       nuclear repulsion energy      2854.7840603499 Hartrees.
 IExCor= 4336 DFT=T Ex+Corr=M062X ExCW=0 ScaHFX=  0.540000
 ScaDFX=  1.000000  1.000000  1.000000  1.000000 ScalE2=  1.000000  1.000000
 IRadAn=      5 IRanWt=     -1 IRanGd=            0 ICorTp=0 IEmpDi=  4
 NAtoms=   51 NActive=   51 NUniq=   51 SFac= 1.00D+00 NAtFMM=   60 NAOKFM=F Big=F
 Integral buffers will be    131072 words long.
 Regular integral format.
 Two-electron integral symmetry is turned off.
 ------------------------------------------------------------------------------
 Polarizable Continuum Model (PCM)
 =================================
 Model                : C-PCM.
 Atomic radii         : UFF (Universal Force Field).
 Polarization charges : Total charges.
 Charge compensation  : None.
 Solution method      : On-the-fly selection.
 Cavity type          : Scaled VdW (van der Waals Surface) (Alpha=1.100).
 Cavity algorithm     : GePol (No added spheres)
                        Default sphere list used, NSphG=   51.
                        Lebedev-Laikov grids with approx.  5.0 points / Ang**2.
                        Smoothing algorithm: York/Karplus (Gamma=1.0000).
                        Polarization charges: spherical gaussians, with
                                              point-specific exponents (IZeta= 3).
                        Self-potential: point-specific (ISelfS= 7).
                        Self-field    : sphere-specific E.n sum rule (ISelfD= 2).
 1st derivatives      : Analytical E(r).r(x)/FMM algorithm (CHGder, D1EAlg=3).
                        Cavity 1st derivative terms included.
 Solvent              : DiMethylSulfoxide, Eps=  46.826000 Eps(inf)=   2.007889
 ------------------------------------------------------------------------------
 GePol: Number of generator spheres                  =      51
 GePol: Total number of spheres                      =      51
 GePol: Number of exposed spheres                    =      51 (100.00%)
 GePol: Number of points                             =    3827
 GePol: Average weight of points                     =       0.13
 GePol: Minimum weight of points                     =   0.10D-10
 GePol: Maximum weight of points                     =    0.20577
 GePol: Number of points with low weight             =     281
 GePol: Fraction of low-weight points (<1% of avg)   =       7.34%
 GePol: Cavity surface area                          =    487.858 Ang**2
 GePol: Cavity volume                                =    553.325 Ang**3
 Leave Link  301 at Mon Jan 31 14:43:03 2022, MaxMem= 14763950080 cpu:               2.5 elap:               0.2
@@@@@@@@@@@@@@@@@@@@@@@@@@@@@@@@@@@@@@@@@@@@@@@@@@@@@@@@@@@
@    WARNING: REMOTE HOST IDENTIFICATION HAS CHANGED!     @
@@@@@@@@@@@@@@@@@@@@@@@@@@@@@@@@@@@@@@@@@@@@@@@@@@@@@@@@@@@
IT IS POSSIBLE THAT SOMEONE IS DOING SOMETHING NASTY!
Someone could be eavesdropping on you right now (man-in-the-middle attack)!
It is also possible that a host key has just been changed.
The fingerprint for the ECDSA key sent by the remote host is
SHA256:I6fnkv2qK+NQQprF6ZCODxE1CM4MWbndglWnBChAS8s.
Please contact your system administrator.
Add correct host key in /lustre2/home/toliste/.ssh/known_hosts to get rid of this message.
Offending ECDSA key in /lustre2/home/toliste/.ssh/known_hosts:51
Password authentication is disabled to avoid man-in-the-middle attacks.
Keyboard-interactive authentication is disabled to avoid man-in-the-middle attacks.
@@@@@@@@@@@@@@@@@@@@@@@@@@@@@@@@@@@@@@@@@@@@@@@@@@@@@@@@@@@
@    WARNING: REMOTE HOST IDENTIFICATION HAS CHANGED!     @
@@@@@@@@@@@@@@@@@@@@@@@@@@@@@@@@@@@@@@@@@@@@@@@@@@@@@@@@@@@
IT IS POSSIBLE THAT SOMEONE IS DOING SOMETHING NASTY!
Someone could be eavesdropping on you right now (man-in-the-middle attack)!
It is also possible that a host key has just been changed.
The fingerprint for the ECDSA key sent by the remote host is
SHA256:UG83LzLLbJrfc3ouxRdqMRizFpNNs+VuCrerBHtS3yg.
Please contact your system administrator.
Add correct host key in /lustre2/home/toliste/.ssh/known_hosts to get rid of this message.
Offending ECDSA key in /lustre2/home/toliste/.ssh/known_hosts:36
Password authentication is disabled to avoid man-in-the-middle attacks.
Keyboard-interactive authentication is disabled to avoid man-in-the-middle attacks.
@@@@@@@@@@@@@@@@@@@@@@@@@@@@@@@@@@@@@@@@@@@@@@@@@@@@@@@@@@@
@    WARNING: REMOTE HOST IDENTIFICATION HAS CHANGED!     @
@@@@@@@@@@@@@@@@@@@@@@@@@@@@@@@@@@@@@@@@@@@@@@@@@@@@@@@@@@@
IT IS POSSIBLE THAT SOMEONE IS DOING SOMETHING NASTY!
Someone could be eavesdropping on you right now (man-in-the-middle attack)!
It is also possible that a host key has just been changed.
The fingerprint for the ECDSA key sent by the remote host is
SHA256:JJ3bzsmHFprpFOLmlBUUTIMJK6PqQCMiuTED89A/f4Q.
Please contact your system administrator.
Add correct host key in /lustre2/home/toliste/.ssh/known_hosts to get rid of this message.
Offending ECDSA key in /lustre2/home/toliste/.ssh/known_hosts:60
Password authentication is disabled to avoid man-in-the-middle attacks.
Keyboard-interactive authentication is disabled to avoid man-in-the-middle attacks.
@@@@@@@@@@@@@@@@@@@@@@@@@@@@@@@@@@@@@@@@@@@@@@@@@@@@@@@@@@@
@    WARNING: REMOTE HOST IDENTIFICATION HAS CHANGED!     @
@@@@@@@@@@@@@@@@@@@@@@@@@@@@@@@@@@@@@@@@@@@@@@@@@@@@@@@@@@@
IT IS POSSIBLE THAT SOMEONE IS DOING SOMETHING NASTY!
Someone could be eavesdropping on you right now (man-in-the-middle attack)!
It is also possible that a host key has just been changed.
The fingerprint for the ECDSA key sent by the remote host is
SHA256:JscowYuk5LTWdKATQVFD7JG9gd86t5dHuwrkREJ14Mo.
Please contact your system administrator.
Add correct host key in /lustre2/home/toliste/.ssh/known_hosts to get rid of this message.
Offending ECDSA key in /lustre2/home/toliste/.ssh/known_hosts:35
Password authentication is disabled to avoid man-in-the-middle attacks.
Keyboard-interactive authentication is disabled to avoid man-in-the-middle attacks.
@@@@@@@@@@@@@@@@@@@@@@@@@@@@@@@@@@@@@@@@@@@@@@@@@@@@@@@@@@@
@    WARNING: REMOTE HOST IDENTIFICATION HAS CHANGED!     @
@@@@@@@@@@@@@@@@@@@@@@@@@@@@@@@@@@@@@@@@@@@@@@@@@@@@@@@@@@@
IT IS POSSIBLE THAT SOMEONE IS DOING SOMETHING NASTY!
Someone could be eavesdropping on you right now (man-in-the-middle attack)!
It is also possible that a host key has just been changed.
The fingerprint for the ECDSA key sent by the remote host is
SHA256:fM1aLgMkS2Z/jnoos4h4svEiU6sKV0Z74SwixTjKTzU.
Please contact your system administrator.
Add correct host key in /lustre2/home/toliste/.ssh/known_hosts to get rid of this message.
Offending ECDSA key in /lustre2/home/toliste/.ssh/known_hosts:37
Password authentication is disabled to avoid man-in-the-middle attacks.
Keyboard-interactive authentication is disabled to avoid man-in-the-middle attacks.
@@@@@@@@@@@@@@@@@@@@@@@@@@@@@@@@@@@@@@@@@@@@@@@@@@@@@@@@@@@
@    WARNING: REMOTE HOST IDENTIFICATION HAS CHANGED!     @
@@@@@@@@@@@@@@@@@@@@@@@@@@@@@@@@@@@@@@@@@@@@@@@@@@@@@@@@@@@
IT IS POSSIBLE THAT SOMEONE IS DOING SOMETHING NASTY!
Someone could be eavesdropping on you right now (man-in-the-middle attack)!
It is also possible that a host key has just been changed.
The fingerprint for the ECDSA key sent by the remote host is
SHA256:lOg0PTwNMPhCmgmx596q/hVlnFc6WZXodhOZVSPE8Zk.
Please contact your system administrator.
Add correct host key in /lustre2/home/toliste/.ssh/known_hosts to get rid of this message.
Offending ECDSA key in /lustre2/home/toliste/.ssh/known_hosts:59
Password authentication is disabled to avoid man-in-the-middle attacks.
Keyboard-interactive authentication is disabled to avoid man-in-the-middle attacks.
@@@@@@@@@@@@@@@@@@@@@@@@@@@@@@@@@@@@@@@@@@@@@@@@@@@@@@@@@@@
@    WARNING: REMOTE HOST IDENTIFICATION HAS CHANGED!     @
@@@@@@@@@@@@@@@@@@@@@@@@@@@@@@@@@@@@@@@@@@@@@@@@@@@@@@@@@@@
IT IS POSSIBLE THAT SOMEONE IS DOING SOMETHING NASTY!
Someone could be eavesdropping on you right now (man-in-the-middle attack)!
It is also possible that a host key has just been changed.
The fingerprint for the ECDSA key sent by the remote host is
SHA256:sASqhGz4jCnUXyjr5y3n9q/G/2Y+7j4hddGOgsbkB7s.
Please contact your system administrator.
Add correct host key in /lustre2/home/toliste/.ssh/known_hosts to get rid of this message.
Offending ECDSA key in /lustre2/home/toliste/.ssh/known_hosts:50
Password authentication is disabled to avoid man-in-the-middle attacks.
Keyboard-interactive authentication is disabled to avoid man-in-the-middle attacks.
 (Enter /lustre1/prg/gaussian/bin/G16_C01_Linda_AVX/g16/linda-exe/l302.exel)
 NPDir=0 NMtPBC=     1 NCelOv=     1 NCel=       1 NClECP=     1 NCelD=      1
         NCelK=      1 NCelE2=     1 NClLst=     1 CellRange=     0.0.
 One-electron integrals computed using PRISM.
 NBasis=   543 RedAO= T EigKep=  2.66D-04  NBF=   543
 NBsUse=   543 1.00D-06 EigRej= -1.00D+00 NBFU=   543
 Precomputing XC quadrature grid using
 IXCGrd= 4 IRadAn=           5 IRanWt=          -1 IRanGd=           0 AccXCQ= 0.00D+00.
 Generated NRdTot=       0 NPtTot=           0 NUsed=           0 NTot=          32
 NSgBfM=   557   557   557   557   557 MxSgAt=    51 MxSgA2=    51.
 Leave Link  302 at Mon Jan 31 14:43:08 2022, MaxMem= 14763950080 cpu:              35.3 elap:               2.3
 (Enter /lustre1/prg/gaussian/bin/G16_C01_Linda_AVX/g16/l303.exe)
 DipDrv:  MaxL=1.
 Leave Link  303 at Mon Jan 31 14:43:08 2022, MaxMem= 14763950080 cpu:               3.6 elap:               0.3
 (Enter /lustre1/prg/gaussian/bin/G16_C01_Linda_AVX/g16/l308.exe)
 Leave Link  308 at Mon Jan 31 14:43:09 2022, MaxMem= 14763950080 cpu:               4.5 elap:               0.3
@@@@@@@@@@@@@@@@@@@@@@@@@@@@@@@@@@@@@@@@@@@@@@@@@@@@@@@@@@@
@    WARNING: REMOTE HOST IDENTIFICATION HAS CHANGED!     @
@@@@@@@@@@@@@@@@@@@@@@@@@@@@@@@@@@@@@@@@@@@@@@@@@@@@@@@@@@@
IT IS POSSIBLE THAT SOMEONE IS DOING SOMETHING NASTY!
Someone could be eavesdropping on you right now (man-in-the-middle attack)!
It is also possible that a host key has just been changed.
The fingerprint for the ECDSA key sent by the remote host is
SHA256:I6fnkv2qK+NQQprF6ZCODxE1CM4MWbndglWnBChAS8s.
Please contact your system administrator.
Add correct host key in /lustre2/home/toliste/.ssh/known_hosts to get rid of this message.
Offending ECDSA key in /lustre2/home/toliste/.ssh/known_hosts:51
Password authentication is disabled to avoid man-in-the-middle attacks.
Keyboard-interactive authentication is disabled to avoid man-in-the-middle attacks.
@@@@@@@@@@@@@@@@@@@@@@@@@@@@@@@@@@@@@@@@@@@@@@@@@@@@@@@@@@@
@    WARNING: REMOTE HOST IDENTIFICATION HAS CHANGED!     @
@@@@@@@@@@@@@@@@@@@@@@@@@@@@@@@@@@@@@@@@@@@@@@@@@@@@@@@@@@@
IT IS POSSIBLE THAT SOMEONE IS DOING SOMETHING NASTY!
Someone could be eavesdropping on you right now (man-in-the-middle attack)!
It is also possible that a host key has just been changed.
The fingerprint for the ECDSA key sent by the remote host is
SHA256:lOg0PTwNMPhCmgmx596q/hVlnFc6WZXodhOZVSPE8Zk.
Please contact your system administrator.
Add correct host key in /lustre2/home/toliste/.ssh/known_hosts to get rid of this message.
Offending ECDSA key in /lustre2/home/toliste/.ssh/known_hosts:59
Password authentication is disabled to avoid man-in-the-middle attacks.
Keyboard-interactive authentication is disabled to avoid man-in-the-middle attacks.
@@@@@@@@@@@@@@@@@@@@@@@@@@@@@@@@@@@@@@@@@@@@@@@@@@@@@@@@@@@
@    WARNING: REMOTE HOST IDENTIFICATION HAS CHANGED!     @
@@@@@@@@@@@@@@@@@@@@@@@@@@@@@@@@@@@@@@@@@@@@@@@@@@@@@@@@@@@
IT IS POSSIBLE THAT SOMEONE IS DOING SOMETHING NASTY!
Someone could be eavesdropping on you right now (man-in-the-middle attack)!
It is also possible that a host key has just been changed.
The fingerprint for the ECDSA key sent by the remote host is
SHA256:fM1aLgMkS2Z/jnoos4h4svEiU6sKV0Z74SwixTjKTzU.
Please contact your system administrator.
Add correct host key in /lustre2/home/toliste/.ssh/known_hosts to get rid of this message.
Offending ECDSA key in /lustre2/home/toliste/.ssh/known_hosts:37
Password authentication is disabled to avoid man-in-the-middle attacks.
Keyboard-interactive authentication is disabled to avoid man-in-the-middle attacks.
@@@@@@@@@@@@@@@@@@@@@@@@@@@@@@@@@@@@@@@@@@@@@@@@@@@@@@@@@@@
@    WARNING: REMOTE HOST IDENTIFICATION HAS CHANGED!     @
@@@@@@@@@@@@@@@@@@@@@@@@@@@@@@@@@@@@@@@@@@@@@@@@@@@@@@@@@@@
IT IS POSSIBLE THAT SOMEONE IS DOING SOMETHING NASTY!
Someone could be eavesdropping on you right now (man-in-the-middle attack)!
It is also possible that a host key has just been changed.
The fingerprint for the ECDSA key sent by the remote host is
SHA256:JJ3bzsmHFprpFOLmlBUUTIMJK6PqQCMiuTED89A/f4Q.
Please contact your system administrator.
Add correct host key in /lustre2/home/toliste/.ssh/known_hosts to get rid of this message.
Offending ECDSA key in /lustre2/home/toliste/.ssh/known_hosts:60
Password authentication is disabled to avoid man-in-the-middle attacks.
Keyboard-interactive authentication is disabled to avoid man-in-the-middle attacks.
@@@@@@@@@@@@@@@@@@@@@@@@@@@@@@@@@@@@@@@@@@@@@@@@@@@@@@@@@@@
@    WARNING: REMOTE HOST IDENTIFICATION HAS CHANGED!     @
@@@@@@@@@@@@@@@@@@@@@@@@@@@@@@@@@@@@@@@@@@@@@@@@@@@@@@@@@@@
IT IS POSSIBLE THAT SOMEONE IS DOING SOMETHING NASTY!
Someone could be eavesdropping on you right now (man-in-the-middle attack)!
It is also possible that a host key has just been changed.
The fingerprint for the ECDSA key sent by the remote host is
SHA256:JscowYuk5LTWdKATQVFD7JG9gd86t5dHuwrkREJ14Mo.
Please contact your system administrator.
Add correct host key in /lustre2/home/toliste/.ssh/known_hosts to get rid of this message.
Offending ECDSA key in /lustre2/home/toliste/.ssh/known_hosts:35
Password authentication is disabled to avoid man-in-the-middle attacks.
Keyboard-interactive authentication is disabled to avoid man-in-the-middle attacks.
@@@@@@@@@@@@@@@@@@@@@@@@@@@@@@@@@@@@@@@@@@@@@@@@@@@@@@@@@@@
@    WARNING: REMOTE HOST IDENTIFICATION HAS CHANGED!     @
@@@@@@@@@@@@@@@@@@@@@@@@@@@@@@@@@@@@@@@@@@@@@@@@@@@@@@@@@@@
IT IS POSSIBLE THAT SOMEONE IS DOING SOMETHING NASTY!
Someone could be eavesdropping on you right now (man-in-the-middle attack)!
It is also possible that a host key has just been changed.
The fingerprint for the ECDSA key sent by the remote host is
SHA256:UG83LzLLbJrfc3ouxRdqMRizFpNNs+VuCrerBHtS3yg.
Please contact your system administrator.
Add correct host key in /lustre2/home/toliste/.ssh/known_hosts to get rid of this message.
Offending ECDSA key in /lustre2/home/toliste/.ssh/known_hosts:36
Password authentication is disabled to avoid man-in-the-middle attacks.
Keyboard-interactive authentication is disabled to avoid man-in-the-middle attacks.
@@@@@@@@@@@@@@@@@@@@@@@@@@@@@@@@@@@@@@@@@@@@@@@@@@@@@@@@@@@
@    WARNING: REMOTE HOST IDENTIFICATION HAS CHANGED!     @
@@@@@@@@@@@@@@@@@@@@@@@@@@@@@@@@@@@@@@@@@@@@@@@@@@@@@@@@@@@
IT IS POSSIBLE THAT SOMEONE IS DOING SOMETHING NASTY!
Someone could be eavesdropping on you right now (man-in-the-middle attack)!
It is also possible that a host key has just been changed.
The fingerprint for the ECDSA key sent by the remote host is
SHA256:sASqhGz4jCnUXyjr5y3n9q/G/2Y+7j4hddGOgsbkB7s.
Please contact your system administrator.
Add correct host key in /lustre2/home/toliste/.ssh/known_hosts to get rid of this message.
Offending ECDSA key in /lustre2/home/toliste/.ssh/known_hosts:50
Password authentication is disabled to avoid man-in-the-middle attacks.
Keyboard-interactive authentication is disabled to avoid man-in-the-middle attacks.
 (Enter /lustre1/prg/gaussian/bin/G16_C01_Linda_AVX/g16/linda-exe/l401.exel)
 ExpMin= 9.54D-02 ExpMax= 1.47D+04 ExpMxC= 5.03D+02 IAcc=3 IRadAn=         5 AccDes= 0.00D+00
 Harris functional with IExCor= 1009 and IRadAn=       5 diagonalized for initial guess.
 HarFok:  IExCor= 1009 AccDes= 0.00D+00 IRadAn=         5 IDoV= 1 UseB2=F ITyADJ=14
 ICtDFT=  3500011 ScaDFX=  1.000000  1.000000  1.000000  1.000000
 FoFCou: FMM=F IPFlag=           0 FMFlag=      100000 FMFlg1=           0
         NFxFlg=           0 DoJE=T BraDBF=F KetDBF=T FulRan=T
         wScrn=  0.000000 ICntrl=       500 IOpCl=  0 I1Cent=   200000004 NGrid=           0
         NMat0=    1 NMatS0=      1 NMatT0=    0 NMatD0=    1 NMtDS0=    0 NMtDT0=    0
 Symmetry not used in FoFCou.
 Harris En= -1373.26771014874    
 JPrj=0 DoOrth=F DoCkMO=F.
 Leave Link  401 at Mon Jan 31 14:43:15 2022, MaxMem= 14763950080 cpu:              71.5 elap:               4.7
@@@@@@@@@@@@@@@@@@@@@@@@@@@@@@@@@@@@@@@@@@@@@@@@@@@@@@@@@@@
@    WARNING: REMOTE HOST IDENTIFICATION HAS CHANGED!     @
@@@@@@@@@@@@@@@@@@@@@@@@@@@@@@@@@@@@@@@@@@@@@@@@@@@@@@@@@@@
IT IS POSSIBLE THAT SOMEONE IS DOING SOMETHING NASTY!
Someone could be eavesdropping on you right now (man-in-the-middle attack)!
It is also possible that a host key has just been changed.
The fingerprint for the ECDSA key sent by the remote host is
SHA256:JJ3bzsmHFprpFOLmlBUUTIMJK6PqQCMiuTED89A/f4Q.
Please contact your system administrator.
Add correct host key in /lustre2/home/toliste/.ssh/known_hosts to get rid of this message.
Offending ECDSA key in /lustre2/home/toliste/.ssh/known_hosts:60
Password authentication is disabled to avoid man-in-the-middle attacks.
Keyboard-interactive authentication is disabled to avoid man-in-the-middle attacks.
@@@@@@@@@@@@@@@@@@@@@@@@@@@@@@@@@@@@@@@@@@@@@@@@@@@@@@@@@@@
@    WARNING: REMOTE HOST IDENTIFICATION HAS CHANGED!     @
@@@@@@@@@@@@@@@@@@@@@@@@@@@@@@@@@@@@@@@@@@@@@@@@@@@@@@@@@@@
IT IS POSSIBLE THAT SOMEONE IS DOING SOMETHING NASTY!
Someone could be eavesdropping on you right now (man-in-the-middle attack)!
It is also possible that a host key has just been changed.
The fingerprint for the ECDSA key sent by the remote host is
SHA256:JscowYuk5LTWdKATQVFD7JG9gd86t5dHuwrkREJ14Mo.
Please contact your system administrator.
Add correct host key in /lustre2/home/toliste/.ssh/known_hosts to get rid of this message.
Offending ECDSA key in /lustre2/home/toliste/.ssh/known_hosts:35
Password authentication is disabled to avoid man-in-the-middle attacks.
Keyboard-interactive authentication is disabled to avoid man-in-the-middle attacks.
@@@@@@@@@@@@@@@@@@@@@@@@@@@@@@@@@@@@@@@@@@@@@@@@@@@@@@@@@@@
@    WARNING: REMOTE HOST IDENTIFICATION HAS CHANGED!     @
@@@@@@@@@@@@@@@@@@@@@@@@@@@@@@@@@@@@@@@@@@@@@@@@@@@@@@@@@@@
IT IS POSSIBLE THAT SOMEONE IS DOING SOMETHING NASTY!
Someone could be eavesdropping on you right now (man-in-the-middle attack)!
It is also possible that a host key has just been changed.
The fingerprint for the ECDSA key sent by the remote host is
SHA256:I6fnkv2qK+NQQprF6ZCODxE1CM4MWbndglWnBChAS8s.
Please contact your system administrator.
Add correct host key in /lustre2/home/toliste/.ssh/known_hosts to get rid of this message.
Offending ECDSA key in /lustre2/home/toliste/.ssh/known_hosts:51
Password authentication is disabled to avoid man-in-the-middle attacks.
Keyboard-interactive authentication is disabled to avoid man-in-the-middle attacks.
@@@@@@@@@@@@@@@@@@@@@@@@@@@@@@@@@@@@@@@@@@@@@@@@@@@@@@@@@@@
@    WARNING: REMOTE HOST IDENTIFICATION HAS CHANGED!     @
@@@@@@@@@@@@@@@@@@@@@@@@@@@@@@@@@@@@@@@@@@@@@@@@@@@@@@@@@@@
IT IS POSSIBLE THAT SOMEONE IS DOING SOMETHING NASTY!
Someone could be eavesdropping on you right now (man-in-the-middle attack)!
It is also possible that a host key has just been changed.
The fingerprint for the ECDSA key sent by the remote host is
SHA256:UG83LzLLbJrfc3ouxRdqMRizFpNNs+VuCrerBHtS3yg.
Please contact your system administrator.
Add correct host key in /lustre2/home/toliste/.ssh/known_hosts to get rid of this message.
Offending ECDSA key in /lustre2/home/toliste/.ssh/known_hosts:36
Password authentication is disabled to avoid man-in-the-middle attacks.
Keyboard-interactive authentication is disabled to avoid man-in-the-middle attacks.
@@@@@@@@@@@@@@@@@@@@@@@@@@@@@@@@@@@@@@@@@@@@@@@@@@@@@@@@@@@
@    WARNING: REMOTE HOST IDENTIFICATION HAS CHANGED!     @
@@@@@@@@@@@@@@@@@@@@@@@@@@@@@@@@@@@@@@@@@@@@@@@@@@@@@@@@@@@
IT IS POSSIBLE THAT SOMEONE IS DOING SOMETHING NASTY!
Someone could be eavesdropping on you right now (man-in-the-middle attack)!
It is also possible that a host key has just been changed.
The fingerprint for the ECDSA key sent by the remote host is
SHA256:sASqhGz4jCnUXyjr5y3n9q/G/2Y+7j4hddGOgsbkB7s.
Please contact your system administrator.
Add correct host key in /lustre2/home/toliste/.ssh/known_hosts to get rid of this message.
Offending ECDSA key in /lustre2/home/toliste/.ssh/known_hosts:50
Password authentication is disabled to avoid man-in-the-middle attacks.
Keyboard-interactive authentication is disabled to avoid man-in-the-middle attacks.
@@@@@@@@@@@@@@@@@@@@@@@@@@@@@@@@@@@@@@@@@@@@@@@@@@@@@@@@@@@
@    WARNING: REMOTE HOST IDENTIFICATION HAS CHANGED!     @
@@@@@@@@@@@@@@@@@@@@@@@@@@@@@@@@@@@@@@@@@@@@@@@@@@@@@@@@@@@
IT IS POSSIBLE THAT SOMEONE IS DOING SOMETHING NASTY!
Someone could be eavesdropping on you right now (man-in-the-middle attack)!
It is also possible that a host key has just been changed.
The fingerprint for the ECDSA key sent by the remote host is
SHA256:fM1aLgMkS2Z/jnoos4h4svEiU6sKV0Z74SwixTjKTzU.
Please contact your system administrator.
Add correct host key in /lustre2/home/toliste/.ssh/known_hosts to get rid of this message.
Offending ECDSA key in /lustre2/home/toliste/.ssh/known_hosts:37
Password authentication is disabled to avoid man-in-the-middle attacks.
Keyboard-interactive authentication is disabled to avoid man-in-the-middle attacks.
@@@@@@@@@@@@@@@@@@@@@@@@@@@@@@@@@@@@@@@@@@@@@@@@@@@@@@@@@@@
@    WARNING: REMOTE HOST IDENTIFICATION HAS CHANGED!     @
@@@@@@@@@@@@@@@@@@@@@@@@@@@@@@@@@@@@@@@@@@@@@@@@@@@@@@@@@@@
IT IS POSSIBLE THAT SOMEONE IS DOING SOMETHING NASTY!
Someone could be eavesdropping on you right now (man-in-the-middle attack)!
It is also possible that a host key has just been changed.
The fingerprint for the ECDSA key sent by the remote host is
SHA256:lOg0PTwNMPhCmgmx596q/hVlnFc6WZXodhOZVSPE8Zk.
Please contact your system administrator.
Add correct host key in /lustre2/home/toliste/.ssh/known_hosts to get rid of this message.
Offending ECDSA key in /lustre2/home/toliste/.ssh/known_hosts:59
Password authentication is disabled to avoid man-in-the-middle attacks.
Keyboard-interactive authentication is disabled to avoid man-in-the-middle attacks.
 (Enter /lustre1/prg/gaussian/bin/G16_C01_Linda_AVX/g16/linda-exe/l502.exel)
 Two-electron integral symmetry not used.
 Closed shell SCF:
 Using DIIS extrapolation, IDIIS=  1040.
 NGot= 14763950080 LenX= 14763273835 LenY= 14762942635
 Requested convergence on RMS density matrix=1.00D-08 within 128 cycles.
 Requested convergence on MAX density matrix=1.00D-06.
 Requested convergence on             energy=1.00D-06.
 No special actions if energy rises.
 Fock matrices will be formed incrementally for  20 cycles.

 Cycle   1  Pass 1  IDiag  1:
 FoFJK:  IHMeth= 1 ICntrl=       0 DoSepK=F KAlg= 0 I1Cent=           0 FoldK=F
 IRaf= 690000000 NMat=       1 IRICut=       1 DoRegI=T DoRafI=F ISym2E= 0 IDoP0=0 IntGTp=1.
 FoFCou: FMM=F IPFlag=           0 FMFlag=      100000 FMFlg1=           0
         NFxFlg=           0 DoJE=F BraDBF=F KetDBF=F FulRan=T
         wScrn=  0.000000 ICntrl=         0 IOpCl=  0 I1Cent=           0 NGrid=           0
         NMat0=    1 NMatS0=      1 NMatT0=    0 NMatD0=    1 NMtDS0=    0 NMtDT0=    0
 Symmetry not used in FoFCou.
 Inv3:  Mode=1 IEnd=    43937787.
 Iteration    1 A*A^-1 deviation from unit magnitude is 5.55D-15 for   3796.
 Iteration    1 A*A^-1 deviation from orthogonality  is 3.50D-15 for   3820   1322.
 Iteration    1 A^-1*A deviation from unit magnitude is 5.55D-15 for   3803.
 Iteration    1 A^-1*A deviation from orthogonality  is 2.89D-15 for   2645   1137.
 E= -1373.61471872045    
 DIIS: error= 4.36D-02 at cycle   1 NSaved=   1.
 NSaved= 1 IEnMin= 1 EnMin= -1373.61471872045     IErMin= 1 ErrMin= 4.36D-02
 ErrMax= 4.36D-02  0.00D+00 EMaxC= 1.00D-01 BMatC= 5.20D-01 BMatP= 5.20D-01
 IDIUse=3 WtCom= 5.64D-01 WtEn= 4.36D-01
 Coeff-Com:  0.100D+01
 Coeff-En:   0.100D+01
 Coeff:      0.100D+01
 Gap=     0.124 Goal=   None    Shift=    0.000
 GapD=    0.124 DampG=1.000 DampE=0.500 DampFc=0.5000 IDamp=-1.
 Damping current iteration by 5.00D-01
 RMSDP=3.25D-03 MaxDP=1.00D-01              OVMax= 1.60D-01

 Cycle   2  Pass 1  IDiag  1:
 RMSU=  1.52D-03    CP:  9.62D-01
 E= -1373.88856171542     Delta-E=       -0.273842994975 Rises=F Damp=T
 DIIS: error= 8.69D-03 at cycle   2 NSaved=   2.
 NSaved= 2 IEnMin= 2 EnMin= -1373.88856171542     IErMin= 2 ErrMin= 8.69D-03
 ErrMax= 8.69D-03  0.00D+00 EMaxC= 1.00D-01 BMatC= 4.53D-02 BMatP= 5.20D-01
 IDIUse=3 WtCom= 9.13D-01 WtEn= 8.69D-02
 Coeff-Com: -0.133D+00 0.113D+01
 Coeff-En:   0.000D+00 0.100D+01
 Coeff:     -0.122D+00 0.112D+01
 Gap=     0.158 Goal=   None    Shift=    0.000
 RMSDP=1.15D-03 MaxDP=6.76D-02 DE=-2.74D-01 OVMax= 9.95D-02

 Cycle   3  Pass 1  IDiag  1:
 RMSU=  8.25D-04    CP:  9.35D-01  1.45D+00
 E= -1374.12823249167     Delta-E=       -0.239670776251 Rises=F Damp=F
 DIIS: error= 5.44D-03 at cycle   3 NSaved=   3.
 NSaved= 3 IEnMin= 3 EnMin= -1374.12823249167     IErMin= 3 ErrMin= 5.44D-03
 ErrMax= 5.44D-03  0.00D+00 EMaxC= 1.00D-01 BMatC= 2.04D-02 BMatP= 4.53D-02
 IDIUse=3 WtCom= 9.46D-01 WtEn= 5.44D-02
 Coeff-Com: -0.116D+00 0.486D+00 0.630D+00
 Coeff-En:   0.000D+00 0.000D+00 0.100D+01
 Coeff:     -0.110D+00 0.460D+00 0.650D+00
 Gap=     0.133 Goal=   None    Shift=    0.000
 RMSDP=3.61D-04 MaxDP=2.77D-02 DE=-2.40D-01 OVMax= 5.38D-02

 Cycle   4  Pass 1  IDiag  1:
 RMSU=  2.56D-04    CP:  9.37D-01  1.48D+00  6.98D-01
 E= -1374.14420396931     Delta-E=       -0.015971477639 Rises=F Damp=F
 DIIS: error= 2.56D-03 at cycle   4 NSaved=   4.
 NSaved= 4 IEnMin= 4 EnMin= -1374.14420396931     IErMin= 4 ErrMin= 2.56D-03
 ErrMax= 2.56D-03  0.00D+00 EMaxC= 1.00D-01 BMatC= 4.46D-03 BMatP= 2.04D-02
 IDIUse=3 WtCom= 9.74D-01 WtEn= 2.56D-02
 Coeff-Com: -0.394D-01 0.111D+00 0.352D+00 0.576D+00
 Coeff-En:   0.000D+00 0.000D+00 0.172D+00 0.828D+00
 Coeff:     -0.384D-01 0.108D+00 0.348D+00 0.583D+00
 Gap=     0.136 Goal=   None    Shift=    0.000
 RMSDP=1.30D-04 MaxDP=9.94D-03 DE=-1.60D-02 OVMax= 2.04D-02

 Cycle   5  Pass 1  IDiag  1:
 RMSU=  6.19D-05    CP:  9.36D-01  1.48D+00  7.88D-01  6.64D-01
 E= -1374.14858118407     Delta-E=       -0.004377214760 Rises=F Damp=F
 DIIS: error= 3.45D-04 at cycle   5 NSaved=   5.
 NSaved= 5 IEnMin= 5 EnMin= -1374.14858118407     IErMin= 5 ErrMin= 3.45D-04
 ErrMax= 3.45D-04  0.00D+00 EMaxC= 1.00D-01 BMatC= 1.89D-04 BMatP= 4.46D-03
 IDIUse=3 WtCom= 9.97D-01 WtEn= 3.45D-03
 Coeff-Com: -0.884D-02 0.142D-01 0.108D+00 0.257D+00 0.630D+00
 Coeff-En:   0.000D+00 0.000D+00 0.000D+00 0.000D+00 0.100D+01
 Coeff:     -0.880D-02 0.141D-01 0.108D+00 0.256D+00 0.631D+00
 Gap=     0.136 Goal=   None    Shift=    0.000
 RMSDP=2.93D-05 MaxDP=1.69D-03 DE=-4.38D-03 OVMax= 3.19D-03

 Cycle   6  Pass 1  IDiag  1:
 RMSU=  2.11D-05    CP:  9.36D-01  1.48D+00  7.91D-01  7.03D-01  7.29D-01
 E= -1374.14876739392     Delta-E=       -0.000186209854 Rises=F Damp=F
 DIIS: error= 1.21D-04 at cycle   6 NSaved=   6.
 NSaved= 6 IEnMin= 6 EnMin= -1374.14876739392     IErMin= 6 ErrMin= 1.21D-04
 ErrMax= 1.21D-04  0.00D+00 EMaxC= 1.00D-01 BMatC= 1.11D-05 BMatP= 1.89D-04
 IDIUse=3 WtCom= 9.99D-01 WtEn= 1.21D-03
 Coeff-Com: -0.121D-02-0.490D-03 0.206D-01 0.630D-01 0.250D+00 0.668D+00
 Coeff-En:   0.000D+00 0.000D+00 0.000D+00 0.000D+00 0.000D+00 0.100D+01
 Coeff:     -0.121D-02-0.490D-03 0.206D-01 0.629D-01 0.250D+00 0.669D+00
 Gap=     0.136 Goal=   None    Shift=    0.000
 RMSDP=8.59D-06 MaxDP=3.70D-04 DE=-1.86D-04 OVMax= 1.86D-03

 Cycle   7  Pass 1  IDiag  1:
 RMSU=  6.65D-06    CP:  9.36D-01  1.49D+00  7.93D-01  7.06D-01  8.07D-01
                    CP:  9.10D-01
 E= -1374.14878126123     Delta-E=       -0.000013867306 Rises=F Damp=F
 DIIS: error= 3.09D-05 at cycle   7 NSaved=   7.
 NSaved= 7 IEnMin= 7 EnMin= -1374.14878126123     IErMin= 7 ErrMin= 3.09D-05
 ErrMax= 3.09D-05  0.00D+00 EMaxC= 1.00D-01 BMatC= 1.04D-06 BMatP= 1.11D-05
 IDIUse=1 WtCom= 1.00D+00 WtEn= 0.00D+00
 Coeff-Com:  0.745D-03-0.208D-02-0.651D-02-0.106D-01 0.141D-02 0.202D+00
 Coeff-Com:  0.815D+00
 Coeff:      0.745D-03-0.208D-02-0.651D-02-0.106D-01 0.141D-02 0.202D+00
 Coeff:      0.815D+00
 Gap=     0.136 Goal=   None    Shift=    0.000
 RMSDP=3.59D-06 MaxDP=1.15D-04 DE=-1.39D-05 OVMax= 6.21D-04

 Cycle   8  Pass 1  IDiag  1:
 RMSU=  2.28D-06    CP:  9.36D-01  1.49D+00  7.93D-01  7.11D-01  8.23D-01
                    CP:  1.02D+00  1.05D+00
 E= -1374.14878297943     Delta-E=       -0.000001718197 Rises=F Damp=F
 DIIS: error= 1.31D-05 at cycle   8 NSaved=   8.
 NSaved= 8 IEnMin= 8 EnMin= -1374.14878297943     IErMin= 8 ErrMin= 1.31D-05
 ErrMax= 1.31D-05  0.00D+00 EMaxC= 1.00D-01 BMatC= 2.31D-07 BMatP= 1.04D-06
 IDIUse=1 WtCom= 1.00D+00 WtEn= 0.00D+00
 Coeff-Com:  0.582D-03-0.932D-03-0.657D-02-0.157D-01-0.421D-01-0.112D-01
 Coeff-Com:  0.380D+00 0.696D+00
 Coeff:      0.582D-03-0.932D-03-0.657D-02-0.157D-01-0.421D-01-0.112D-01
 Coeff:      0.380D+00 0.696D+00
 Gap=     0.136 Goal=   None    Shift=    0.000
 RMSDP=1.57D-06 MaxDP=8.64D-05 DE=-1.72D-06 OVMax= 3.98D-04

 Cycle   9  Pass 1  IDiag  1:
 RMSU=  7.79D-07    CP:  9.36D-01  1.49D+00  7.94D-01  7.12D-01  8.32D-01
                    CP:  1.06D+00  1.17D+00  8.38D-01
 E= -1374.14878335300     Delta-E=       -0.000000373569 Rises=F Damp=F
 DIIS: error= 2.91D-06 at cycle   9 NSaved=   9.
 NSaved= 9 IEnMin= 9 EnMin= -1374.14878335300     IErMin= 9 ErrMin= 2.91D-06
 ErrMax= 2.91D-06  0.00D+00 EMaxC= 1.00D-01 BMatC= 9.79D-09 BMatP= 2.31D-07
 IDIUse=1 WtCom= 1.00D+00 WtEn= 0.00D+00
 Coeff-Com:  0.798D-04-0.716D-04-0.904D-03-0.250D-02-0.923D-02-0.130D-01
 Coeff-Com:  0.172D-01 0.165D+00 0.844D+00
 Coeff:      0.798D-04-0.716D-04-0.904D-03-0.250D-02-0.923D-02-0.130D-01
 Coeff:      0.172D-01 0.165D+00 0.844D+00
 Gap=     0.136 Goal=   None    Shift=    0.000
 RMSDP=4.32D-07 MaxDP=1.45D-05 DE=-3.74D-07 OVMax= 1.00D-04

 Cycle  10  Pass 1  IDiag  1:
 RMSU=  2.53D-07    CP:  9.36D-01  1.49D+00  7.93D-01  7.12D-01  8.33D-01
                    CP:  1.07D+00  1.20D+00  9.27D-01  1.07D+00
 E= -1374.14878337304     Delta-E=       -0.000000020040 Rises=F Damp=F
 DIIS: error= 1.26D-06 at cycle  10 NSaved=  10.
 NSaved=10 IEnMin=10 EnMin= -1374.14878337304     IErMin=10 ErrMin= 1.26D-06
 ErrMax= 1.26D-06  0.00D+00 EMaxC= 1.00D-01 BMatC= 2.07D-09 BMatP= 9.79D-09
 IDIUse=1 WtCom= 1.00D+00 WtEn= 0.00D+00
 Coeff-Com: -0.381D-04 0.833D-04 0.456D-03 0.986D-03 0.138D-02-0.418D-02
 Coeff-Com: -0.459D-01-0.174D-01 0.345D+00 0.720D+00
 Coeff:     -0.381D-04 0.833D-04 0.456D-03 0.986D-03 0.138D-02-0.418D-02
 Coeff:     -0.459D-01-0.174D-01 0.345D+00 0.720D+00
 Gap=     0.136 Goal=   None    Shift=    0.000
 RMSDP=1.54D-07 MaxDP=6.60D-06 DE=-2.00D-08 OVMax= 4.11D-05

 Cycle  11  Pass 1  IDiag  1:
 RMSU=  8.67D-08    CP:  9.36D-01  1.49D+00  7.93D-01  7.12D-01  8.34D-01
                    CP:  1.07D+00  1.20D+00  9.50D-01  1.18D+00  9.71D-01
 E= -1374.14878337630     Delta-E=       -0.000000003268 Rises=F Damp=F
 DIIS: error= 7.27D-07 at cycle  11 NSaved=  11.
 NSaved=11 IEnMin=11 EnMin= -1374.14878337630     IErMin=11 ErrMin= 7.27D-07
 ErrMax= 7.27D-07  0.00D+00 EMaxC= 1.00D-01 BMatC= 3.21D-10 BMatP= 2.07D-09
 IDIUse=1 WtCom= 1.00D+00 WtEn= 0.00D+00
 Coeff-Com: -0.262D-04 0.456D-04 0.306D-03 0.736D-03 0.165D-02-0.314D-03
 Coeff-Com: -0.234D-01-0.251D-01 0.509D-01 0.333D+00 0.663D+00
 Coeff:     -0.262D-04 0.456D-04 0.306D-03 0.736D-03 0.165D-02-0.314D-03
 Coeff:     -0.234D-01-0.251D-01 0.509D-01 0.333D+00 0.663D+00
 Gap=     0.136 Goal=   None    Shift=    0.000
 RMSDP=5.38D-08 MaxDP=2.17D-06 DE=-3.27D-09 OVMax= 8.82D-06

 Cycle  12  Pass 1  IDiag  1:
 RMSU=  3.23D-08    CP:  9.36D-01  1.49D+00  7.93D-01  7.12D-01  8.34D-01
                    CP:  1.07D+00  1.21D+00  9.56D-01  1.21D+00  1.07D+00
                    CP:  9.32D-01
 E= -1374.14878337671     Delta-E=       -0.000000000406 Rises=F Damp=F
 DIIS: error= 1.57D-07 at cycle  12 NSaved=  12.
 NSaved=12 IEnMin=12 EnMin= -1374.14878337671     IErMin=12 ErrMin= 1.57D-07
 ErrMax= 1.57D-07  0.00D+00 EMaxC= 1.00D-01 BMatC= 2.88D-11 BMatP= 3.21D-10
 IDIUse=1 WtCom= 1.00D+00 WtEn= 0.00D+00
 Coeff-Com: -0.479D-05 0.638D-05 0.587D-04 0.157D-03 0.438D-03 0.443D-03
 Coeff-Com: -0.330D-02-0.489D-02-0.213D-01 0.593D-01 0.251D+00 0.718D+00
 Coeff:     -0.479D-05 0.638D-05 0.587D-04 0.157D-03 0.438D-03 0.443D-03
 Coeff:     -0.330D-02-0.489D-02-0.213D-01 0.593D-01 0.251D+00 0.718D+00
 Gap=     0.136 Goal=   None    Shift=    0.000
 RMSDP=1.66D-08 MaxDP=1.15D-06 DE=-4.06D-10 OVMax= 4.84D-06

 Cycle  13  Pass 1  IDiag  1:
 RMSU=  1.17D-08    CP:  9.36D-01  1.49D+00  7.93D-01  7.12D-01  8.34D-01
                    CP:  1.07D+00  1.21D+00  9.57D-01  1.22D+00  1.09D+00
                    CP:  1.03D+00  9.18D-01
 E= -1374.14878337678     Delta-E=       -0.000000000065 Rises=F Damp=F
 DIIS: error= 5.99D-08 at cycle  13 NSaved=  13.
 NSaved=13 IEnMin=13 EnMin= -1374.14878337678     IErMin=13 ErrMin= 5.99D-08
 ErrMax= 5.99D-08  0.00D+00 EMaxC= 1.00D-01 BMatC= 5.32D-12 BMatP= 2.88D-11
 IDIUse=1 WtCom= 1.00D+00 WtEn= 0.00D+00
 Coeff-Com:  0.191D-05-0.391D-05-0.211D-04-0.463D-04-0.697D-04 0.182D-03
 Coeff-Com:  0.165D-02 0.198D-02-0.176D-01-0.223D-01-0.311D-01 0.250D+00
 Coeff-Com:  0.817D+00
 Coeff:      0.191D-05-0.391D-05-0.211D-04-0.463D-04-0.697D-04 0.182D-03
 Coeff:      0.165D-02 0.198D-02-0.176D-01-0.223D-01-0.311D-01 0.250D+00
 Coeff:      0.817D+00
 Gap=     0.136 Goal=   None    Shift=    0.000
 RMSDP=9.50D-09 MaxDP=2.87D-07 DE=-6.46D-11 OVMax= 1.81D-06

 Error on total polarization charges =  0.01609
 SCF Done:  E(RM062X) =  -1374.14878338     A.U. after   13 cycles
            NFock= 13  Conv=0.95D-08     -V/T= 2.0063
 KE= 1.365537396835D+03 PE=-8.909871954532D+03 EE= 3.315401713970D+03
 Leave Link  502 at Mon Jan 31 14:45:16 2022, MaxMem= 14763950080 cpu:            1794.8 elap:             119.0
 (Enter /lustre1/prg/gaussian/bin/G16_C01_Linda_AVX/g16/l801.exe)
 DoSCS=F DFT=T ScalE2(SS,OS)=  1.000000  1.000000
 ExpMin= 9.54D-02 ExpMax= 1.47D+04 ExpMxC= 5.03D+02 IAcc=3 IRadAn=         5 AccDes= 0.00D+00
 HarFok:  IExCor=  205 AccDes= 0.00D+00 IRadAn=         5 IDoV=-2 UseB2=F ITyADJ=14
 ICtDFT= 12500011 ScaDFX=  1.000000  1.000000  1.000000  1.000000
 GSVD:  LWork=       -1280 too small for GESVD, short by        5600 words or        5600 for optimal perf.
 Largest valence mixing into a core orbital is  7.94D-05
 Largest core mixing into a valence orbital is  5.09D-05
 Range of M.O.s used for correlation:    33   543
 NBasis=   543 NAE=   109 NBE=   109 NFC=    32 NFV=     0
 NROrb=    511 NOA=    77 NOB=    77 NVA=   434 NVB=   434

 **** Warning!!: The largest alpha MO coefficient is  0.12210243D+02

 Leave Link  801 at Mon Jan 31 14:45:17 2022, MaxMem= 14763950080 cpu:               5.0 elap:               0.4
@@@@@@@@@@@@@@@@@@@@@@@@@@@@@@@@@@@@@@@@@@@@@@@@@@@@@@@@@@@
@    WARNING: REMOTE HOST IDENTIFICATION HAS CHANGED!     @
@@@@@@@@@@@@@@@@@@@@@@@@@@@@@@@@@@@@@@@@@@@@@@@@@@@@@@@@@@@
IT IS POSSIBLE THAT SOMEONE IS DOING SOMETHING NASTY!
Someone could be eavesdropping on you right now (man-in-the-middle attack)!
It is also possible that a host key has just been changed.
The fingerprint for the ECDSA key sent by the remote host is
SHA256:JJ3bzsmHFprpFOLmlBUUTIMJK6PqQCMiuTED89A/f4Q.
[...]
 Alpha virt. eigenvalues --    1.35956   1.37062   1.37222   1.37952   1.39356
 Alpha virt. eigenvalues --    1.40076   1.40135   1.41454   1.43054   1.43428
 Alpha virt. eigenvalues --    1.43474   1.45439   1.45471   1.46662   1.48676
 Alpha virt. eigenvalues --    1.49095   1.49871   1.50523   1.50590   1.51022
 Alpha virt. eigenvalues --    1.51792   1.51884   1.52663   1.52707   1.53290
 Alpha virt. eigenvalues --    1.53894   1.54613   1.54734   1.55578   1.55625
 Alpha virt. eigenvalues --    1.56292   1.56668   1.57348   1.58670   1.59694
 Alpha virt. eigenvalues --    1.59719   1.60857   1.61687   1.62136   1.63471
 Alpha virt. eigenvalues --    1.63888   1.63975   1.64514   1.64610   1.64686
 Alpha virt. eigenvalues --    1.64722   1.65066   1.65665   1.66108   1.66151
 Alpha virt. eigenvalues --    1.66531   1.66974   1.67360   1.67799   1.68221
 Alpha virt. eigenvalues --    1.69045   1.69643   1.69820   1.70243   1.70793
 Alpha virt. eigenvalues --    1.71052   1.71339   1.72075   1.72334   1.73843
 Alpha virt. eigenvalues --    1.74560   1.74850   1.75577   1.75989   1.76891
 Alpha virt. eigenvalues --    1.77035   1.77462   1.78086   1.78537   1.78940
 Alpha virt. eigenvalues --    1.79293   1.80314   1.80616   1.81046   1.81567
 Alpha virt. eigenvalues --    1.82140   1.83206   1.83883   1.83901   1.84736
 Alpha virt. eigenvalues --    1.84868   1.85088   1.86153   1.86347   1.87714
 Alpha virt. eigenvalues --    1.88151   1.88262   1.88627   1.88704   1.89088
 Alpha virt. eigenvalues --    1.89324   1.89496   1.90007   1.90416   1.90970
 Alpha virt. eigenvalues --    1.92375   1.93084   1.93348   1.93904   1.94179
 Alpha virt. eigenvalues --    1.95175   1.97055   1.97754   1.98322   1.98386
 Alpha virt. eigenvalues --    1.99948   2.00397   2.00406   2.01375   2.02698
 Alpha virt. eigenvalues --    2.02995   2.03454   2.03681   2.03713   2.04426
 Alpha virt. eigenvalues --    2.04717   2.06462   2.08027   2.09786   2.10617
 Alpha virt. eigenvalues --    2.11869   2.14145   2.14531   2.15139   2.16572
 Alpha virt. eigenvalues --    2.17027   2.17780   2.19430   2.21452   2.22965
 Alpha virt. eigenvalues --    2.23016   2.24406   2.24573   2.26638   2.30029
 Alpha virt. eigenvalues --    2.31029   2.31599   2.32055   2.32099   2.33759
 Alpha virt. eigenvalues --    2.35268   2.35437   2.38706   2.39593   2.40087
 Alpha virt. eigenvalues --    2.40132   2.40737   2.41253   2.43537   2.43733
 Alpha virt. eigenvalues --    2.44496   2.45862   2.46392   2.46739   2.46913
 Alpha virt. eigenvalues --    2.47755   2.48608   2.49633   2.49959   2.51306
 Alpha virt. eigenvalues --    2.52293   2.53507   2.55102   2.58284   2.63147
 Alpha virt. eigenvalues --    2.65336   2.66545   2.66841   2.68762   2.70205
 Alpha virt. eigenvalues --    2.71851   2.72104   2.72912   2.73531   2.73574
 Alpha virt. eigenvalues --    2.74184   2.77565   2.83135   2.83521   2.85270
 Alpha virt. eigenvalues --    2.88219   2.88874   2.89538   2.93448   2.93638
 Alpha virt. eigenvalues --    2.97119   2.98863   3.09998   3.11630   3.14882
 Alpha virt. eigenvalues --    3.15380   3.56011   3.59593   3.59664   3.68190
 Alpha virt. eigenvalues --    3.68384   3.71700   3.74339   3.76540   3.89021
 Alpha virt. eigenvalues --    4.03953   4.07259   4.11892   4.14116
          Condensed to atoms (all electrons):
 Mulliken charges:
               1
     1  N   -0.167754
     2  C    0.099792
     3  C   -0.039260
     4  C   -0.093772
     5  C    0.111968
     6  C   -0.017614
     7  C    0.013062
     8  C    0.031836
     9  C    0.013057
    10  C   -0.017646
    11  C    0.005951
    12  C    0.065414
    13  C    0.112066
    14  C   -0.093993
    15  C   -0.039327
    16  C    0.099706
    17  N   -0.167784
    18  F   -0.232586
    19  B    0.190849
    20  F   -0.229165
    21  H    0.056999
    22  H    0.036187
    23  H    0.030065
    24  H    0.032657
    25  H    0.036891
    26  H    0.032668
    27  H    0.030157
    28  H    0.036246
    29  H    0.056985
    30  C    0.017245
    31  C   -0.045760
    32  C   -0.047682
    33  C    0.009305
    34  C    0.008623
    35  C   -0.010259
    36  H    0.009692
    37  H    0.009812
    38  H    0.017821
    39  H    0.018094
    40  H    0.016310
    41  C    0.017423
    42  C   -0.047889
    43  C   -0.045898
    44  C    0.008701
    45  C    0.009343
    46  C   -0.010238
    47  H    0.009816
    48  H    0.009698
    49  H    0.018081
    50  H    0.017810
    51  H    0.016298
 Sum of Mulliken charges =  -0.00000
 Mulliken charges with hydrogens summed into heavy atoms:
               1
     1  N   -0.167754
     2  C    0.156791
     3  C   -0.039260
     4  C   -0.057585
     5  C    0.111968
     6  C    0.012451
     7  C    0.045719
     8  C    0.068727
     9  C    0.045725
    10  C    0.012510
    11  C    0.005951
    12  C    0.065414
    13  C    0.112066
    14  C   -0.057747
    15  C   -0.039327
    16  C    0.156692
    17  N   -0.167784
    18  F   -0.232586
    19  B    0.190849
    20  F   -0.229165
    30  C    0.017245
    31  C   -0.036068
    32  C   -0.037870
    33  C    0.027126
    34  C    0.026717
    35  C    0.006051
    41  C    0.017423
    42  C   -0.038073
    43  C   -0.036200
    44  C    0.026782
    45  C    0.027153
    46  C    0.006061
 Electronic spatial extent (au):  <R**2>=         178854.4584
 Charge=              0.0000 electrons
 Dipole moment (field-independent basis, Debye):
    X=              0.0722    Y=              6.7775    Z=              4.5130  Tot=              8.1429
 Quadrupole moment (field-independent basis, Debye-Ang):
   XX=           -152.1528   YY=           -256.8498   ZZ=           -197.7130
   XY=             79.1487   XZ=             52.4774   YZ=            -32.9243
 Traceless Quadrupole moment (field-independent basis, Debye-Ang):
   XX=             50.0857   YY=            -54.6112   ZZ=              4.5255
   XY=             79.1487   XZ=             52.4774   YZ=            -32.9243
 Octapole moment (field-independent basis, Debye-Ang**2):
  XXX=          -5393.7060  YYY=           5130.5297  ZZZ=           -206.0277  XYY=          -3015.5016
  XXY=           2167.3894  XXZ=            629.7013  XZZ=          -2327.0431  YZZ=           1656.0487
  YYZ=            179.8963  XYZ=           -382.1172
 Hexadecapole moment (field-independent basis, Debye-Ang**3):
 XXXX=        -142086.3293 YYYY=         -84174.0760 ZZZZ=          -1670.9373 XXXY=          54626.7274
 XXXZ=           7862.1260 YYYX=          60286.5841 YYYZ=           -170.0013 ZZZX=          -2329.5098
 ZZZY=           1760.7443 XXYY=         -48639.3983 XXZZ=         -30376.7446 YYZZ=         -15172.1494
 XXYZ=          -4516.7899 YYXZ=           2097.8108 ZZXY=          19490.5851
 N-N= 2.852671773707D+03 E-N=-8.905591590153D+03  KE= 1.365493187330D+03

 **********************************************************************

            Population analysis using the CI Rho(1) Density.

 **********************************************************************

          Condensed to atoms (all electrons):
 Mulliken charges:
               1
     1  N   -0.155545
     2  C    0.121143
     3  C    0.046285
     4  C   -0.168829
     5  C    0.230246
     6  C   -0.072185
     7  C    0.011426
     8  C   -0.026068
     9  C    0.011423
    10  C   -0.072184
    11  C   -0.002476
    12  C   -0.228713
    13  C    0.230588
    14  C   -0.168996
    15  C    0.046404
    16  C    0.121328
    17  N   -0.155525
    18  F   -0.232978
    19  B    0.187037
    20  F   -0.229016
    21  H    0.056782
    22  H    0.035299
    23  H    0.027880
    24  H    0.032630
    25  H    0.036395
    26  H    0.032640
    27  H    0.027978
    28  H    0.035365
    29  H    0.056769
    30  C    0.030094
    31  C   -0.028074
    32  C   -0.026912
    33  C    0.011788
    34  C    0.009395
    35  C    0.014300
    36  H    0.009597
    37  H    0.009772
    38  H    0.017819
    39  H    0.018091
    40  H    0.016442
    41  C    0.030329
    42  C   -0.027036
    43  C   -0.028143
    44  C    0.009466
    45  C    0.011835
    46  C    0.014428
    47  H    0.009784
    48  H    0.009608
    49  H    0.018077
    50  H    0.017808
    51  H    0.016430
 Sum of Mulliken charges =  -0.00000
 Mulliken charges with hydrogens summed into heavy atoms:
               1
     1  N   -0.155545
     2  C    0.177925
     3  C    0.046285
     4  C   -0.133530
     5  C    0.230246
     6  C   -0.044305
     7  C    0.044057
     8  C    0.010328
     9  C    0.044063
    10  C   -0.044206
    11  C   -0.002476
    12  C   -0.228713
    13  C    0.230588
    14  C   -0.133631
    15  C    0.046404
    16  C    0.178097
    17  N   -0.155525
    18  F   -0.232978
    19  B    0.187037
    20  F   -0.229016
    30  C    0.030094
    31  C   -0.018477
    32  C   -0.017141
    33  C    0.029606
    34  C    0.027486
    35  C    0.030742
    41  C    0.030329
    42  C   -0.017252
    43  C   -0.018536
    44  C    0.027544
    45  C    0.029642
    46  C    0.030858
 Electronic spatial extent (au):  <R**2>=         178753.6645
 Charge=             -0.0000 electrons
 Dipole moment (field-independent basis, Debye):
    X=              0.0528    Y=             -0.2916    Z=              5.0850  Tot=              5.0936
 Quadrupole moment (field-independent basis, Debye-Ang):
   XX=           -119.8977   YY=           -154.4694   ZZ=           -196.7772
   XY=             -3.8424   XZ=             58.7812   YZ=            -40.2733
 Traceless Quadrupole moment (field-independent basis, Debye-Ang):
   XX=             37.1504   YY=              2.5787   ZZ=            -39.7291
   XY=             -3.8424   XZ=             58.7812   YZ=            -40.2733
 Octapole moment (field-independent basis, Debye-Ang**2):
  XXX=          -4247.6106  YYY=           3960.6889  ZZZ=           -202.8676  XYY=          -1812.4574
  XXY=            872.3092  XXZ=            735.8672  XZZ=          -2316.9816  YZZ=           1641.9486
  YYZ=            262.0916  XYZ=           -464.4957
 Hexadecapole moment (field-independent basis, Debye-Ang**3):
 XXXX=        -113904.9770 YYYY=         -71844.4917 ZZZZ=          -1663.7570 XXXY=          31869.1578
 XXXZ=           9909.0409 YYYX=          46534.3590 YYYZ=          -1046.1650 ZZZX=          -2295.1982
 ZZZY=           1726.7192 XXYY=         -31372.1762 XXZZ=         -30194.4166 YYZZ=         -15009.3130
 XXYZ=          -5801.9697 YYXZ=           3025.5936 ZZXY=          19333.9475
 N-N= 2.852671773707D+03 E-N=-8.905723947956D+03  KE= 1.365532406270D+03

 **********************************************************************

            Population analysis using the CI Density.

 **********************************************************************

          Condensed to atoms (all electrons):
 Mulliken charges:
               1
     1  N   -0.166164
     2  C    0.110457
     3  C   -0.019674
     4  C   -0.108223
     5  C    0.136537
     6  C   -0.049298
     7  C    0.008459
     8  C   -0.001589
     9  C    0.008461
    10  C   -0.049286
    11  C    0.021934
    12  C   -0.000180
    13  C    0.136720
    14  C   -0.108389
    15  C   -0.019718
    16  C    0.110529
    17  N   -0.166192
    18  F   -0.231363
    19  B    0.191597
    20  F   -0.227564
    21  H    0.060385
    22  H    0.030217
    23  H    0.012055
    24  H    0.020563
    25  H    0.019986
    26  H    0.020574
    27  H    0.012149
    28  H    0.030321
    29  H    0.060425
    30  C    0.013166
    31  C   -0.032659
    32  C   -0.033656
    33  C    0.012155
    34  C    0.010484
    35  C    0.003596
    36  H    0.016965
    37  H    0.017052
    38  H    0.023372
    39  H    0.023501
    40  H    0.024008
    41  C    0.013350
    42  C   -0.033809
    43  C   -0.032742
    44  C    0.010572
    45  C    0.012208
    46  C    0.003686
    47  H    0.017097
    48  H    0.017006
    49  H    0.023509
    50  H    0.023385
    51  H    0.024030
 Sum of Mulliken charges =  -0.00000
 Mulliken charges with hydrogens summed into heavy atoms:
               1
     1  N   -0.166164
     2  C    0.170842
     3  C   -0.019674
     4  C   -0.078006
     5  C    0.136537
     6  C   -0.037243
     7  C    0.029022
     8  C    0.018397
     9  C    0.029035
    10  C   -0.037137
    11  C    0.021934
    12  C   -0.000180
    13  C    0.136720
    14  C   -0.078068
    15  C   -0.019718
    16  C    0.170954
    17  N   -0.166192
    18  F   -0.231363
    19  B    0.191597
    20  F   -0.227564
    30  C    0.013166
    31  C   -0.015694
    32  C   -0.016604
    33  C    0.035528
    34  C    0.033984
    35  C    0.027604
    41  C    0.013350
    42  C   -0.016713
    43  C   -0.015736
    44  C    0.034081
    45  C    0.035592
    46  C    0.027716
 Electronic spatial extent (au):  <R**2>=         178775.8580
 Charge=              0.0000 electrons
 Dipole moment (field-independent basis, Debye):
    X=              0.0584    Y=              1.3440    Z=              5.1810  Tot=              5.3528
 Quadrupole moment (field-independent basis, Debye-Ang):
   XX=           -123.6425   YY=           -181.1522   ZZ=           -196.2007
   XY=             15.3478   XZ=             59.9658   YZ=            -40.5113
 Traceless Quadrupole moment (field-independent basis, Debye-Ang):
   XX=             43.3560   YY=            -14.1538   ZZ=            -29.2022
   XY=             15.3478   XZ=             59.9658   YZ=            -40.5113
 Octapole moment (field-independent basis, Debye-Ang**2):
  XXX=          -4381.7502  YYY=           4269.8271  ZZZ=           -201.3136  XYY=          -2125.9156
  XXY=           1127.4633  XXZ=            757.0346  XZZ=          -2310.3806  YZZ=           1636.6715
  YYZ=            259.1905  XYZ=           -467.7497
 Hexadecapole moment (field-independent basis, Debye-Ang**3):
 XXXX=        -116876.0226 YYYY=         -74927.4508 ZZZZ=          -1656.6395 XXXY=          35567.2558
 XXXZ=          10318.7995 YYYX=          50167.5305 YYYZ=           -986.3908 ZZZX=          -2277.9908
 ZZZY=           1713.4819 XXYY=         -35267.1226 XXZZ=         -30091.2129 YYZZ=         -14963.4143
 XXYZ=          -5900.2050 YYXZ=           2995.0348 ZZXY=          19273.3209
 N-N= 2.852671773707D+03 E-N=-8.905757528775D+03  KE= 1.365562234768D+03
 No NMR shielding tensors so no spin-rotation constants.
 Leave Link  601 at Mon Jan 31 19:16:52 2022, MaxMem= 14763950080 cpu:              13.0 elap:               1.0
 (Enter /lustre1/prg/gaussian/bin/G16_C01_Linda_AVX/g16/l9999.exe)
 Electronic transition elements 
                 1             2             3             4             5 
      1  -0.137408D+04 -0.137405D+04 -0.137404D+04 -0.137403D+04 -0.137401D+04
      2   0.350800D+01  0.126019D-02  0.121727D+01 -0.701787D-03 -0.725791D+00
      3  -0.304902D-02  0.262926D+01 -0.204391D-02  0.194848D+01 -0.507558D-03
      4  -0.448334D-01 -0.951318D-01 -0.154535D-01 -0.115238D+00  0.105361D-01
      5  -0.234479D+00 -0.955896D-04 -0.142472D+00  0.126058D-03  0.109405D+00
      6   0.200155D-03 -0.270114D+00  0.238786D-03 -0.245075D+00  0.625470D-04
      7   0.302207D-02  0.112962D-01  0.177719D-02  0.174083D-01 -0.158286D-02
      8  -0.397074D-01 -0.182558D+00 -0.310335D-01 -0.432482D+00  0.916331D-02
      9  -0.229084D+00 -0.249557D+00  0.248317D+00 -0.387013D+00  0.108039D+00
     10  -0.302369D+01 -0.600119D+01 -0.249446D+01 -0.543996D+01  0.629610D+00
     11  -0.104220D+02  0.205493D+01 -0.633036D+01  0.570067D+00  0.486161D+01
     12  -0.813682D-02  0.707738D+01 -0.796259D-02  0.567750D+01 -0.149527D-02
     13   0.915511D-02  0.140556D+00  0.119679D-02  0.362003D-01 -0.954321D-03
     14   0.418852D+01 -0.600353D+01  0.231486D+01 -0.544871D+01 -0.114247D+01
     15  -0.277018D+00  0.226218D+00 -0.131962D-01  0.380519D+00 -0.158370D-02
     16  -0.534028D-01 -0.290975D+00 -0.286207D-01 -0.323101D+00  0.163777D-01
                 6 
      1  -0.137399D+04
      2   0.361499D-02
      3   0.150450D+00
      4   0.656352D-01
      5  -0.114086D-02
      6  -0.250162D-01
      7  -0.134401D-01
      8   0.382088D+00
      9   0.322833D+00
     10  -0.645799D+00
     11   0.136692D+00
     12   0.112983D+01
     13  -0.423429D-01
     14  -0.597063D+00
     15  -0.316118D+00
     16   0.163483D+00
 Unable to Open any file for archive entry.
 1\1\VILNIUS-FIZIKA142\FOpt\RM062X TD-FC\CC-pVDZ\C27H19B1F2N2\TOLISTE\3
 1-Jan-2022\0\\#p m062x cc-pvdz scrf=(cpcm,solvent=DiMethylSulfoxide) t
 d=(nstate=6,root=1) opt=tight nosymm density=all int=ultrafine fchk\\B
 DP-PP-phenyl, optimized R1 in toluene\\0,1\N,12.9481137075,-9.20907876
 5,-0.631414592\C,14.1069593063,-9.8185657738,-0.4066450953\C,14.943539
 4702,-8.981149341,0.3877980643\C,14.1981994037,-7.8123003421,0.6379628
 921\C,12.9565931643,-7.9475760232,-0.0030411986\C,10.5521708239,-4.957
 8849679,0.133735658\C,10.5592243946,-3.5710669919,0.2197056612\C,11.76
 36785798,-2.866211968,0.2637649662\C,12.9644161679,-3.5744097503,0.184
 4459844\C,12.9651218431,-4.9612359852,0.098429834\C,11.757442498,-5.69
 98375553,0.1056765786\C,11.7540927484,-7.1496364754,0.0067836224\C,10.
 5497334444,-7.9446510264,0.0281565919\C,9.3253852812,-7.8069113266,0.7
 010525959\C,8.5708146689,-8.9736368177,0.4691315364\C,9.3845811135,-9.
 8124028266,-0.3473461395\N,10.5388314051,-9.2057527183,-0.6011802717\F
 ,11.7300748708,-11.1175070639,-1.4746706515\B,11.7325318268,-9.7303084
 66,-1.4328416232\F,11.7172192588,-9.1785464557,-2.7141614565\H,14.3000
 562273,-10.8033916258,-0.8249921889\H,14.4892219522,-6.9852338437,1.27
 61353292\H,9.5957033867,-5.4681138923,0.0523703862\H,9.6101158236,-3.0
 344117315,0.240330555\H,11.7662065263,-1.7783986658,0.3338009061\H,13.
 9151840481,-3.0403587882,0.177002257\H,13.9174072218,-5.4741667465,-0.
 010797173\H,9.0527696814,-6.9795877789,1.3469029684\H,9.1786354356,-10
 .7965904844,-0.7610641811\C,16.2953559483,-9.2980387768,0.8292633751\C
 ,17.0761009609,-8.3326295885,1.4938657181\C,16.8519305126,-10.57322137
 15,0.6078896918\C,18.3633126507,-8.6335126333,1.9237015658\C,18.139758
 2976,-10.8701390628,1.0388821555\C,18.9018780865,-9.903135322,1.699068
 4785\H,16.6720086984,-7.334754923,1.6666320438\H,16.268573908,-11.3426
 027894,0.1013286152\H,18.9530924011,-7.872412736,2.4353564105\H,18.552
 2890381,-11.8635174442,0.8604912244\H,19.9119386466,-10.1376296904,2.0
 36182478\C,7.2301451307,-9.2879276827,0.9450418759\C,6.6618789103,-10.
 5588438667,0.7288577986\C,6.4721195934,-8.3244875817,1.6382914849\C,5.
 3846751954,-10.8534759943,1.1918229223\C,5.1954984597,-8.6230878888,2.
 1001219359\C,4.6450372047,-9.8883579376,1.8798423507\H,7.2276531962,-1
 1.3266887979,0.200494532\H,6.8854601836,-7.3300188251,1.808763309\H,4.
 9628227726,-11.843496288,1.0166316553\H,4.6233203512,-7.8635366973,2.6
 336339378\H,3.6432415733,-10.1209479047,2.2420046246\\Version=ES64L-G1
 6RevC.01\HF=-1374.1498588\RMSD=5.660e-09\RMSF=5.061e-07\Dipole=0.02296
 ,0.5287781,2.0383685\Quadrupole=32.2341151,-10.5229814,-21.7111336,11.
 4107455,44.5830932,-30.119167\PG=C01 [X(C27H19B1F2N2)]\\@
 The archive entry for this job was punched.


            THE IRISH PIG
 'TWAS AN EVENING IN NOVEMBER,
 AS I VERY WELL REMEMBER
 I WAS STROLLING DOWN THE STREET IN DRUNKEN PRIDE,
 BUT MY KNEES WERE ALL A'FLUTTER
 SO I LANDED IN THE GUTTER,
 AND A PIG CAME UP AND LAY DOWN BY MY SIDE.

 YES, I LAY THERE IN THE GUTTER
 THINKING THOUGHTS I COULD NOT UTTER
 WHEN A COLLEEN PASSING BY DID SOFTLY SAY,
 'YE CAN TELL A MAN THAT BOOZES
 BY THE COMPANY THAT HE CHOOSES.' -
 AT THAT, THE PIG GOT UP AND WALKED AWAY!
     -- THE ECONOMIST, AUGUST 23, 1986
 Job cpu time:       0 days  0 hours  9 minutes 32.0 seconds.
 Elapsed time:       0 days  4 hours 30 minutes  0.2 seconds.
 File lengths (MBytes):  RWF=   1886 Int=      0 D2E=      0 Chk=     92 Scr=      1
 Normal termination of Gaussian 16 at Mon Jan 31 19:16:55 2022.
