 Entering Gaussian System, Link 0=/lustre1/prg/gaussian/bin/G16_C01_Linda_AVX2/g16/g16
 Initial command:
 /lustre1/prg/gaussian/bin/G16_C01_Linda_AVX2/g16/l1.exe "/lustre1/prg/webmo/data/webmo20/toliste/4439/scratch/Gau-1737549.inp" -scrdir="/lustre1/prg/webmo/data/webmo20/toliste/4439/scratch/"
 Default is to use a total of  32 processors:
                               32 via shared-memory
                                1 via Linda
 Entering Link 1 = /lustre1/prg/gaussian/bin/G16_C01_Linda_AVX2/g16/l1.exe PID=   1737550.
  
 Copyright (c) 1988-2019, Gaussian, Inc.  All Rights Reserved.
  
 This is part of the Gaussian(R) 16 program.  It is based on
 the Gaussian(R) 09 system (copyright 2009, Gaussian, Inc.),
 the Gaussian(R) 03 system (copyright 2003, Gaussian, Inc.),
 the Gaussian(R) 98 system (copyright 1998, Gaussian, Inc.),
 the Gaussian(R) 94 system (copyright 1995, Gaussian, Inc.),
 the Gaussian 92(TM) system (copyright 1992, Gaussian, Inc.),
 the Gaussian 90(TM) system (copyright 1990, Gaussian, Inc.),
 the Gaussian 88(TM) system (copyright 1988, Gaussian, Inc.),
 the Gaussian 86(TM) system (copyright 1986, Carnegie Mellon
 University), and the Gaussian 82(TM) system (copyright 1983,
 Carnegie Mellon University). Gaussian is a federally registered
 trademark of Gaussian, Inc.
  
 This software contains proprietary and confidential information,
 including trade secrets, belonging to Gaussian, Inc.
  
 This software is provided under written license and may be
 used, copied, transmitted, or stored only in accord with that
 written license.
  
 The following legend is applicable only to US Government
 contracts under FAR:
  
                    RESTRICTED RIGHTS LEGEND
  
 Use, reproduction and disclosure by the US Government is
 subject to restrictions as set forth in subparagraphs (a)
 and (c) of the Commercial Computer Software - Restricted
 Rights clause in FAR 52.227-19.
  
 Gaussian, Inc.
 340 Quinnipiac St., Bldg. 40, Wallingford CT 06492
  
  
 ---------------------------------------------------------------
 Warning -- This program may not be used in any manner that
 competes with the business of Gaussian, Inc. or will provide
 assistance to any competitor of Gaussian, Inc.  The licensee
 of this program is prohibited from giving any competitor of
 Gaussian, Inc. access to this program.  By using this program,
 the user acknowledges that Gaussian, Inc. is engaged in the
 business of creating and licensing software in the field of
 computational chemistry and represents and warrants to the
 licensee that it is not a competitor of Gaussian, Inc. and that
 it will not use this program in any manner prohibited above.
 ---------------------------------------------------------------
  

 Cite this work as:
 Gaussian 16, Revision C.01,
 M. J. Frisch, G. W. Trucks, H. B. Schlegel, G. E. Scuseria, 
 M. A. Robb, J. R. Cheeseman, G. Scalmani, V. Barone, 
 G. A. Petersson, H. Nakatsuji, X. Li, M. Caricato, A. V. Marenich, 
 J. Bloino, B. G. Janesko, R. Gomperts, B. Mennucci, H. P. Hratchian, 
 J. V. Ortiz, A. F. Izmaylov, J. L. Sonnenberg, D. Williams-Young, 
 F. Ding, F. Lipparini, F. Egidi, J. Goings, B. Peng, A. Petrone, 
 T. Henderson, D. Ranasinghe, V. G. Zakrzewski, J. Gao, N. Rega, 
 G. Zheng, W. Liang, M. Hada, M. Ehara, K. Toyota, R. Fukuda, 
 J. Hasegawa, M. Ishida, T. Nakajima, Y. Honda, O. Kitao, H. Nakai, 
 T. Vreven, K. Throssell, J. A. Montgomery, Jr., J. E. Peralta, 
 F. Ogliaro, M. J. Bearpark, J. J. Heyd, E. N. Brothers, K. N. Kudin, 
 V. N. Staroverov, T. A. Keith, R. Kobayashi, J. Normand, 
 K. Raghavachari, A. P. Rendell, J. C. Burant, S. S. Iyengar, 
 J. Tomasi, M. Cossi, J. M. Millam, M. Klene, C. Adamo, R. Cammi, 
 J. W. Ochterski, R. L. Martin, K. Morokuma, O. Farkas, 
 J. B. Foresman, and D. J. Fox, Gaussian, Inc., Wallingford CT, 2019.
 
 ******************************************
 Gaussian 16:  ES64L-G16RevC.01  3-Jul-2019
                 2-Feb-2022 
 ******************************************
 %LindaWorkers=fizika341,fizika342
 %chk=bodipy.chk
 SetLPE:  input flags=" -opt "Tsnet.Node.lindarsharg: ssh" "
 SetLPE:    new flags=" -opt "Tsnet.Node.lindarsharg: ssh" -opt 'Tsnet.Node.lindarsharg: ssh'  -nodelist 'fizika341.fizika.bullx fizika342.fizika.bullx' -env GAUSS_MDEF=49660559360 -env GAUSS_EXEDIR="/lustre1/prg/gaussian/bin/G16_C01_Linda_AVX2/g16/bsd:/lustre1/prg/gaussian/bin/G16_C01_Linda_AVX2/g16/private:/lustre1/prg/gaussian/bin/G16_C01_Linda_AVX2/g16""
 Will use up to    2 processors via Linda.
 ----------------------------------------------------------------------
 #p m062x cc-pvdz scrf=(cpcm,solvent=Acetone) td=(nstate=6,root=1) opt=
 tight nosymm density=all int=ultrafine fchk
 ----------------------------------------------------------------------
 1/7=10,18=20,19=15,26=6,38=1/1,3;
 2/9=110,12=2,15=1,17=6,18=5,40=1/2;
 3/5=16,11=9,25=1,30=1,70=2101,71=1,72=19,74=-55,75=-5/1,2,3,8;
 4//1;
 5/5=2,38=5,53=19/2;
 8/6=1,10=1,107=1,108=6/1;
 9/8=1,15=2,30=10,41=6,42=1,70=2/14;
 10/5=4,28=1,31=1/2;
 6/7=2,8=2,9=2,10=2,22=-2/1;
 7/12=6,13=5,14=1,30=1/1,2,3,16;
 1/7=10,18=20,19=15,26=6/3(2);
 2/9=110,15=1/2;
 99//99;
 2/9=110,15=1/2;
 3/5=16,11=9,25=1,30=1,70=2105,71=1,72=19,74=-55,75=-5/1,2,3,8;
 4/5=5,16=3,69=1/1;
 5/5=2,38=5,53=19/2;
 8/6=1,10=1,107=1,108=6/1;
 9/8=1,15=2,30=10,41=6,42=1,49=4,70=2/14;
 10/5=4,28=1,31=1/2;
 7/12=6,13=5,14=1,30=1/1,2,3,16;
 1/7=10,18=20,19=15,26=6/3(-8);
 2/9=110,15=1/2;
 6/7=2,8=2,9=2,10=2,22=-2/1;
 99/9=10/99;
 Leave Link    1 at Wed Feb  2 00:45:16 2022, MaxMem=           0 cpu:               2.4 elap:               0.1
 (Enter /lustre1/prg/gaussian/bin/G16_C01_Linda_AVX2/g16/l101.exe)
 --------------------------------------
 BDP-PP-phenyl, optimized R1 in toluene
 --------------------------------------
 Symbolic Z-matrix:
 Charge =  0 Multiplicity = 1
 N                     12.9455  -9.17441  -0.67918 
 C                     14.09211  -9.79984  -0.43656 
 C                     14.92112  -8.98055   0.38003 
 C                     14.18185  -7.80336   0.62711 
 C                     12.9552  -7.92114  -0.03778 
 C                     10.5502  -4.93335   0.10629 
 C                     10.55775  -3.54846   0.20397 
 C                     11.76274  -2.8445    0.25565 
 C                     12.96423  -3.55132   0.17089 
 C                     12.96584  -4.93621   0.07313 
 C                     11.75691  -5.67489   0.07416 
 C                     11.75382  -7.11821  -0.02702 
 C                     10.5506  -7.91836  -0.0066 
 C                     9.34192  -7.79806   0.68993 
 C                     8.59349  -8.97327   0.46128 
 C                     9.39914  -9.79405  -0.37694 
 N                     10.54064  -9.17133  -0.6487 
 F                     11.72933  -11.0663  -1.55738 
 B                     11.73184  -9.68129  -1.49992 
 F                     11.71659  -9.10067  -2.76128 
 H                     14.27987  -10.78149  -0.86393 
 H                     14.46594  -6.98524   1.28009 
 H                     9.59604  -5.44717   0.01644 
 H                     9.60942  -3.01042   0.22578 
 H                     11.76509  -1.75722   0.33363 
 H                     13.91406  -3.0155    0.16644 
 H                     13.91597  -5.45231  -0.04277 
 H                     9.07672  -6.97952   1.35025 
 H                     9.19826  -10.77517  -0.79954 
 C                     16.26198  -9.31157   0.84175 
 C                     17.04739  -8.35407   1.51166 
 C                     16.80494  -10.59503   0.63603 
 C                     18.32402  -8.66959   1.96096 
 C                     18.08196  -10.9071   1.08621 
 C                     18.84829  -9.94716   1.75123 
 H                     16.65425  -7.34973   1.67147 
 H                     16.21613  -11.35892   0.12743 
 H                     18.91722  -7.91351   2.47621 
 H                     18.48302  -11.90725   0.91962 
 H                     19.85033  -10.19344   2.10359 
 C                     7.26416  -9.30139   0.95701 
 C                     6.7103   -10.5813   0.75828 
 C                     6.50104  -8.34468   1.65337 
 C                     5.44429  -10.89067   1.24025 
 C                     5.2354   -8.6575    2.13449 
 C                     4.70004  -9.93148   1.93105 
 H                     7.28185  -11.34461   0.22951 
 H                     6.90278  -7.34312   1.80911 
 H                     5.0345   -11.88804   1.07833 
 H                     4.65946  -7.90206   2.6699 
 H                     3.70657  -10.17557   2.30829 
 
 ITRead=  0  0  0  0  0  0  0  0  0  0  0  0  0  0  0  0  0  0  0  0
 ITRead=  0  0  0  0  0  0  0  0  0  0  0  0  0  0  0  0  0  0  0  0
 ITRead=  0  0  0  0  0  0  0  0  0  0  0
 MicOpt= -1 -1 -1 -1 -1 -1 -1 -1 -1 -1 -1 -1 -1 -1 -1 -1 -1 -1 -1 -1
 MicOpt= -1 -1 -1 -1 -1 -1 -1 -1 -1 -1 -1 -1 -1 -1 -1 -1 -1 -1 -1 -1
 MicOpt= -1 -1 -1 -1 -1 -1 -1 -1 -1 -1 -1
 NAtoms=     51 NQM=       51 NQMF=       0 NMMI=      0 NMMIF=      0
                NMic=       0 NMicF=      0.
                    Isotopes and Nuclear Properties:
 (Nuclear quadrupole moments (NQMom) in fm**2, nuclear magnetic moments (NMagM)
  in nuclear magnetons)

  Atom         1           2           3           4           5           6           7           8           9          10
 IAtWgt=          14          12          12          12          12          12          12          12          12          12
 AtmWgt=  14.0030740  12.0000000  12.0000000  12.0000000  12.0000000  12.0000000  12.0000000  12.0000000  12.0000000  12.0000000
 NucSpn=           2           0           0           0           0           0           0           0           0           0
 AtZEff=  -0.0000000  -0.0000000  -0.0000000  -0.0000000  -0.0000000  -0.0000000  -0.0000000  -0.0000000  -0.0000000  -0.0000000
 NQMom=    2.0440000   0.0000000   0.0000000   0.0000000   0.0000000   0.0000000   0.0000000   0.0000000   0.0000000   0.0000000
 NMagM=    0.4037610   0.0000000   0.0000000   0.0000000   0.0000000   0.0000000   0.0000000   0.0000000   0.0000000   0.0000000
 AtZNuc=   7.0000000   6.0000000   6.0000000   6.0000000   6.0000000   6.0000000   6.0000000   6.0000000   6.0000000   6.0000000

  Atom        11          12          13          14          15          16          17          18          19          20
 IAtWgt=          12          12          12          12          12          12          14          19          11          19
 AtmWgt=  12.0000000  12.0000000  12.0000000  12.0000000  12.0000000  12.0000000  14.0030740  18.9984032  11.0093053  18.9984032
 NucSpn=           0           0           0           0           0           0           2           1           3           1
 AtZEff=  -0.0000000  -0.0000000  -0.0000000  -0.0000000  -0.0000000  -0.0000000  -0.0000000  -0.0000000  -0.0000000  -0.0000000
 NQMom=    0.0000000   0.0000000   0.0000000   0.0000000   0.0000000   0.0000000   2.0440000   0.0000000   4.0590000   0.0000000
 NMagM=    0.0000000   0.0000000   0.0000000   0.0000000   0.0000000   0.0000000   0.4037610   2.6288670   2.6886370   2.6288670
 AtZNuc=   6.0000000   6.0000000   6.0000000   6.0000000   6.0000000   6.0000000   7.0000000   9.0000000   5.0000000   9.0000000

  Atom        21          22          23          24          25          26          27          28          29          30
 IAtWgt=           1           1           1           1           1           1           1           1           1          12
 AtmWgt=   1.0078250   1.0078250   1.0078250   1.0078250   1.0078250   1.0078250   1.0078250   1.0078250   1.0078250  12.0000000
 NucSpn=           1           1           1           1           1           1           1           1           1           0
 AtZEff=  -0.0000000  -0.0000000  -0.0000000  -0.0000000  -0.0000000  -0.0000000  -0.0000000  -0.0000000  -0.0000000  -0.0000000
 NQMom=    0.0000000   0.0000000   0.0000000   0.0000000   0.0000000   0.0000000   0.0000000   0.0000000   0.0000000   0.0000000
 NMagM=    2.7928460   2.7928460   2.7928460   2.7928460   2.7928460   2.7928460   2.7928460   2.7928460   2.7928460   0.0000000
 AtZNuc=   1.0000000   1.0000000   1.0000000   1.0000000   1.0000000   1.0000000   1.0000000   1.0000000   1.0000000   6.0000000

  Atom        31          32          33          34          35          36          37          38          39          40
 IAtWgt=          12          12          12          12          12           1           1           1           1           1
 AtmWgt=  12.0000000  12.0000000  12.0000000  12.0000000  12.0000000   1.0078250   1.0078250   1.0078250   1.0078250   1.0078250
 NucSpn=           0           0           0           0           0           1           1           1           1           1
 AtZEff=  -0.0000000  -0.0000000  -0.0000000  -0.0000000  -0.0000000  -0.0000000  -0.0000000  -0.0000000  -0.0000000  -0.0000000
 NQMom=    0.0000000   0.0000000   0.0000000   0.0000000   0.0000000   0.0000000   0.0000000   0.0000000   0.0000000   0.0000000
 NMagM=    0.0000000   0.0000000   0.0000000   0.0000000   0.0000000   2.7928460   2.7928460   2.7928460   2.7928460   2.7928460
 AtZNuc=   6.0000000   6.0000000   6.0000000   6.0000000   6.0000000   1.0000000   1.0000000   1.0000000   1.0000000   1.0000000

  Atom        41          42          43          44          45          46          47          48          49          50
 IAtWgt=          12          12          12          12          12          12           1           1           1           1
 AtmWgt=  12.0000000  12.0000000  12.0000000  12.0000000  12.0000000  12.0000000   1.0078250   1.0078250   1.0078250   1.0078250
 NucSpn=           0           0           0           0           0           0           1           1           1           1
 AtZEff=  -0.0000000  -0.0000000  -0.0000000  -0.0000000  -0.0000000  -0.0000000  -0.0000000  -0.0000000  -0.0000000  -0.0000000
 NQMom=    0.0000000   0.0000000   0.0000000   0.0000000   0.0000000   0.0000000   0.0000000   0.0000000   0.0000000   0.0000000
 NMagM=    0.0000000   0.0000000   0.0000000   0.0000000   0.0000000   0.0000000   2.7928460   2.7928460   2.7928460   2.7928460
 AtZNuc=   6.0000000   6.0000000   6.0000000   6.0000000   6.0000000   6.0000000   1.0000000   1.0000000   1.0000000   1.0000000

  Atom        51
 IAtWgt=           1
 AtmWgt=   1.0078250
 NucSpn=           1
 AtZEff=  -0.0000000
 NQMom=    0.0000000
 NMagM=    2.7928460
 AtZNuc=   1.0000000
 Leave Link  101 at Wed Feb  2 00:45:17 2022, MaxMem= 49660559360 cpu:              21.4 elap:               0.7
 (Enter /lustre1/prg/gaussian/bin/G16_C01_Linda_AVX2/g16/l103.exe)

 GradGradGradGradGradGradGradGradGradGradGradGradGradGradGradGradGradGrad
 Berny optimization.
 Initialization pass.
                           ----------------------------
                           !    Initial Parameters    !
                           ! (Angstroms and Degrees)  !
 --------------------------                            --------------------------
 ! Name  Definition              Value          Derivative Info.                !
 --------------------------------------------------------------------------------
 ! R1    R(1,2)                  1.3284         estimate D2E/DX2                !
 ! R2    R(1,5)                  1.4079         estimate D2E/DX2                !
 ! R3    R(1,19)                 1.5503         estimate D2E/DX2                !
 ! R4    R(2,3)                  1.4231         estimate D2E/DX2                !
 ! R5    R(2,21)                 1.087          estimate D2E/DX2                !
 ! R6    R(3,4)                  1.4119         estimate D2E/DX2                !
 ! R7    R(3,30)                 1.4563         estimate D2E/DX2                !
 ! R8    R(4,5)                  1.4002         estimate D2E/DX2                !
 ! R9    R(4,22)                 1.0846         estimate D2E/DX2                !
 ! R10   R(5,12)                 1.445          estimate D2E/DX2                !
 ! R11   R(6,7)                  1.3883         estimate D2E/DX2                !
 ! R12   R(6,11)                 1.4167         estimate D2E/DX2                !
 ! R13   R(6,23)                 1.0874         estimate D2E/DX2                !
 ! R14   R(7,8)                  1.3965         estimate D2E/DX2                !
 ! R15   R(7,24)                 1.0905         estimate D2E/DX2                !
 ! R16   R(8,9)                  1.3966         estimate D2E/DX2                !
 ! R17   R(8,25)                 1.0901         estimate D2E/DX2                !
 ! R18   R(9,10)                 1.3883         estimate D2E/DX2                !
 ! R19   R(9,26)                 1.0905         estimate D2E/DX2                !
 ! R20   R(10,11)                1.4167         estimate D2E/DX2                !
 ! R21   R(10,27)                1.0875         estimate D2E/DX2                !
 ! R22   R(11,12)                1.4469         estimate D2E/DX2                !
 ! R23   R(12,13)                1.4451         estimate D2E/DX2                !
 ! R24   R(13,14)                1.4002         estimate D2E/DX2                !
 ! R25   R(13,17)                1.408          estimate D2E/DX2                !
 ! R26   R(14,15)                1.4119         estimate D2E/DX2                !
 ! R27   R(14,28)                1.0846         estimate D2E/DX2                !
 ! R28   R(15,16)                1.4232         estimate D2E/DX2                !
 ! R29   R(15,41)                1.4562         estimate D2E/DX2                !
 ! R30   R(16,17)                1.3284         estimate D2E/DX2                !
 ! R31   R(16,29)                1.087          estimate D2E/DX2                !
 ! R32   R(17,19)                1.5504         estimate D2E/DX2                !
 ! R33   R(18,19)                1.3862         estimate D2E/DX2                !
 ! R34   R(19,20)                1.3887         estimate D2E/DX2                !
 ! R35   R(30,31)                1.408          estimate D2E/DX2                !
 ! R36   R(30,32)                1.4087         estimate D2E/DX2                !
 ! R37   R(31,33)                1.3897         estimate D2E/DX2                !
 ! R38   R(31,36)                1.0903         estimate D2E/DX2                !
 ! R39   R(32,34)                1.3895         estimate D2E/DX2                !
 ! R40   R(32,37)                1.0904         estimate D2E/DX2                !
 ! R41   R(33,35)                1.3968         estimate D2E/DX2                !
 ! R42   R(33,38)                1.0904         estimate D2E/DX2                !
 ! R43   R(34,35)                1.3968         estimate D2E/DX2                !
 ! R44   R(34,39)                1.0904         estimate D2E/DX2                !
 ! R45   R(35,40)                1.0904         estimate D2E/DX2                !
 ! R46   R(41,42)                1.4087         estimate D2E/DX2                !
 ! R47   R(41,43)                1.408          estimate D2E/DX2                !
 ! R48   R(42,44)                1.3895         estimate D2E/DX2                !
 ! R49   R(42,47)                1.0904         estimate D2E/DX2                !
 ! R50   R(43,45)                1.3897         estimate D2E/DX2                !
 ! R51   R(43,48)                1.0903         estimate D2E/DX2                !
 ! R52   R(44,46)                1.3968         estimate D2E/DX2                !
 ! R53   R(44,49)                1.0904         estimate D2E/DX2                !
 ! R54   R(45,46)                1.3968         estimate D2E/DX2                !
 ! R55   R(45,50)                1.0904         estimate D2E/DX2                !
 ! R56   R(46,51)                1.0904         estimate D2E/DX2                !
 ! A1    A(2,1,5)              109.2649         estimate D2E/DX2                !
 ! A2    A(2,1,19)             128.2032         estimate D2E/DX2                !
 ! A3    A(5,1,19)             122.5218         estimate D2E/DX2                !
 ! A4    A(1,2,3)              109.667          estimate D2E/DX2                !
 ! A5    A(1,2,21)             120.1629         estimate D2E/DX2                !
 ! A6    A(3,2,21)             130.1571         estimate D2E/DX2                !
 ! A7    A(2,3,4)              105.9861         estimate D2E/DX2                !
 ! A8    A(2,3,30)             125.975          estimate D2E/DX2                !
 ! A9    A(4,3,30)             128.0368         estimate D2E/DX2                !
 ! A10   A(3,4,5)              107.7865         estimate D2E/DX2                !
 ! A11   A(3,4,22)             126.664          estimate D2E/DX2                !
 ! A12   A(5,4,22)             125.3652         estimate D2E/DX2                !
 ! A13   A(1,5,4)              107.2925         estimate D2E/DX2                !
 ! A14   A(1,5,12)             119.4906         estimate D2E/DX2                !
 ! A15   A(4,5,12)             132.6913         estimate D2E/DX2                !
 ! A16   A(7,6,11)             121.2705         estimate D2E/DX2                !
 ! A17   A(7,6,23)             118.8109         estimate D2E/DX2                !
 ! A18   A(11,6,23)            119.8799         estimate D2E/DX2                !
 ! A19   A(6,7,8)              120.6726         estimate D2E/DX2                !
 ! A20   A(6,7,24)             119.2623         estimate D2E/DX2                !
 ! A21   A(8,7,24)             120.0592         estimate D2E/DX2                !
 ! A22   A(7,8,9)              119.0103         estimate D2E/DX2                !
 ! A23   A(7,8,25)             120.4845         estimate D2E/DX2                !
 ! A24   A(9,8,25)             120.4845         estimate D2E/DX2                !
 ! A25   A(8,9,10)             120.6724         estimate D2E/DX2                !
 ! A26   A(8,9,26)             120.0591         estimate D2E/DX2                !
 ! A27   A(10,9,26)            119.2626         estimate D2E/DX2                !
 ! A28   A(9,10,11)            121.2691         estimate D2E/DX2                !
 ! A29   A(9,10,27)            118.8119         estimate D2E/DX2                !
 ! A30   A(11,10,27)           119.8804         estimate D2E/DX2                !
 ! A31   A(6,11,10)            116.9967         estimate D2E/DX2                !
 ! A32   A(6,11,12)            121.4603         estimate D2E/DX2                !
 ! A33   A(10,11,12)           121.4589         estimate D2E/DX2                !
 ! A34   A(5,12,11)            123.5752         estimate D2E/DX2                !
 ! A35   A(5,12,13)            112.6229         estimate D2E/DX2                !
 ! A36   A(11,12,13)           123.5814         estimate D2E/DX2                !
 ! A37   A(12,13,14)           132.7018         estimate D2E/DX2                !
 ! A38   A(12,13,17)           119.4844         estimate D2E/DX2                !
 ! A39   A(14,13,17)           107.2906         estimate D2E/DX2                !
 ! A40   A(13,14,15)           107.7885         estimate D2E/DX2                !
 ! A41   A(13,14,28)           125.364          estimate D2E/DX2                !
 ! A42   A(15,14,28)           126.6654         estimate D2E/DX2                !
 ! A43   A(14,15,16)           105.9826         estimate D2E/DX2                !
 ! A44   A(14,15,41)           128.0477         estimate D2E/DX2                !
 ! A45   A(16,15,41)           125.9675         estimate D2E/DX2                !
 ! A46   A(15,16,17)           109.6688         estimate D2E/DX2                !
 ! A47   A(15,16,29)           130.1609         estimate D2E/DX2                !
 ! A48   A(17,16,29)           120.1579         estimate D2E/DX2                !
 ! A49   A(13,17,16)           109.2662         estimate D2E/DX2                !
 ! A50   A(13,17,19)           122.5262         estimate D2E/DX2                !
 ! A51   A(16,17,19)           128.1967         estimate D2E/DX2                !
 ! A52   A(1,19,17)            101.7287         estimate D2E/DX2                !
 ! A53   A(1,19,18)            110.4892         estimate D2E/DX2                !
 ! A54   A(1,19,20)            110.6562         estimate D2E/DX2                !
 ! A55   A(17,19,18)           110.4881         estimate D2E/DX2                !
 ! A56   A(17,19,20)           110.6555         estimate D2E/DX2                !
 ! A57   A(18,19,20)           112.3391         estimate D2E/DX2                !
 ! A58   A(3,30,31)            120.6568         estimate D2E/DX2                !
 ! A59   A(3,30,32)            121.0438         estimate D2E/DX2                !
 ! A60   A(31,30,32)           118.2989         estimate D2E/DX2                !
 ! A61   A(30,31,33)           120.7886         estimate D2E/DX2                !
 ! A62   A(30,31,36)           119.671          estimate D2E/DX2                !
 ! A63   A(33,31,36)           119.5375         estimate D2E/DX2                !
 ! A64   A(30,32,34)           120.7659         estimate D2E/DX2                !
 ! A65   A(30,32,37)           119.8865         estimate D2E/DX2                !
 ! A66   A(34,32,37)           119.3444         estimate D2E/DX2                !
 ! A67   A(31,33,35)           120.2603         estimate D2E/DX2                !
 ! A68   A(31,33,38)           119.6764         estimate D2E/DX2                !
 ! A69   A(35,33,38)           120.063          estimate D2E/DX2                !
 ! A70   A(32,34,35)           120.2727         estimate D2E/DX2                !
 ! A71   A(32,34,39)           119.6398         estimate D2E/DX2                !
 ! A72   A(35,34,39)           120.0873         estimate D2E/DX2                !
 ! A73   A(33,35,34)           119.6133         estimate D2E/DX2                !
 ! A74   A(33,35,40)           120.1994         estimate D2E/DX2                !
 ! A75   A(34,35,40)           120.1872         estimate D2E/DX2                !
 ! A76   A(15,41,42)           121.0391         estimate D2E/DX2                !
 ! A77   A(15,41,43)           120.6645         estimate D2E/DX2                !
 ! A78   A(42,41,43)           118.2959         estimate D2E/DX2                !
 ! A79   A(41,42,44)           120.7689         estimate D2E/DX2                !
 ! A80   A(41,42,47)           119.8919         estimate D2E/DX2                !
 ! A81   A(44,42,47)           119.3363         estimate D2E/DX2                !
 ! A82   A(41,43,45)           120.7891         estimate D2E/DX2                !
 ! A83   A(41,43,48)           119.6768         estimate D2E/DX2                !
 ! A84   A(45,43,48)           119.5314         estimate D2E/DX2                !
 ! A85   A(42,44,46)           120.2717         estimate D2E/DX2                !
 ! A86   A(42,44,49)           119.6406         estimate D2E/DX2                !
 ! A87   A(46,44,49)           120.0875         estimate D2E/DX2                !
 ! A88   A(43,45,46)           120.262          estimate D2E/DX2                !
 ! A89   A(43,45,50)           119.6751         estimate D2E/DX2                !
 ! A90   A(46,45,50)           120.0626         estimate D2E/DX2                !
 ! A91   A(44,46,45)           119.6122         estimate D2E/DX2                !
 ! A92   A(44,46,51)           120.1883         estimate D2E/DX2                !
 ! A93   A(45,46,51)           120.1995         estimate D2E/DX2                !
 ! D1    D(5,1,2,3)             -0.1655         estimate D2E/DX2                !
 ! D2    D(5,1,2,21)          -178.9807         estimate D2E/DX2                !
 ! D3    D(19,1,2,3)          -179.0177         estimate D2E/DX2                !
 ! D4    D(19,1,2,21)            2.167          estimate D2E/DX2                !
 ! D5    D(2,1,5,4)             -0.1967         estimate D2E/DX2                !
 ! D6    D(2,1,5,12)          -172.9086         estimate D2E/DX2                !
 ! D7    D(19,1,5,4)           178.7337         estimate D2E/DX2                !
 ! D8    D(19,1,5,12)            6.0217         estimate D2E/DX2                !
 ! D9    D(2,1,19,17)          140.3064         estimate D2E/DX2                !
 ! D10   D(2,1,19,18)           22.9711         estimate D2E/DX2                !
 ! D11   D(2,1,19,20)         -102.0939         estimate D2E/DX2                !
 ! D12   D(5,1,19,17)          -38.4086         estimate D2E/DX2                !
 ! D13   D(5,1,19,18)         -155.7439         estimate D2E/DX2                !
 ! D14   D(5,1,19,20)           79.1911         estimate D2E/DX2                !
 ! D15   D(1,2,3,4)              0.4574         estimate D2E/DX2                !
 ! D16   D(1,2,3,30)          -179.0483         estimate D2E/DX2                !
 ! D17   D(21,2,3,4)           179.1172         estimate D2E/DX2                !
 ! D18   D(21,2,3,30)           -0.3886         estimate D2E/DX2                !
 ! D19   D(2,3,4,5)             -0.5678         estimate D2E/DX2                !
 ! D20   D(2,3,4,22)           174.6843         estimate D2E/DX2                !
 ! D21   D(30,3,4,5)           178.9244         estimate D2E/DX2                !
 ! D22   D(30,3,4,22)           -5.8235         estimate D2E/DX2                !
 ! D23   D(2,3,30,31)          172.3184         estimate D2E/DX2                !
 ! D24   D(2,3,30,32)           -7.935          estimate D2E/DX2                !
 ! D25   D(4,3,30,31)           -7.0783         estimate D2E/DX2                !
 ! D26   D(4,3,30,32)          172.6683         estimate D2E/DX2                !
 ! D27   D(3,4,5,1)              0.4792         estimate D2E/DX2                !
 ! D28   D(3,4,5,12)           171.839          estimate D2E/DX2                !
 ! D29   D(22,4,5,1)          -174.8506         estimate D2E/DX2                !
 ! D30   D(22,4,5,12)           -3.4909         estimate D2E/DX2                !
 ! D31   D(1,5,12,11)         -153.2526         estimate D2E/DX2                !
 ! D32   D(1,5,12,13)           31.9771         estimate D2E/DX2                !
 ! D33   D(4,5,12,11)           36.2325         estimate D2E/DX2                !
 ! D34   D(4,5,12,13)         -138.5378         estimate D2E/DX2                !
 ! D35   D(11,6,7,8)             0.8552         estimate D2E/DX2                !
 ! D36   D(11,6,7,24)          179.9822         estimate D2E/DX2                !
 ! D37   D(23,6,7,8)          -176.8789         estimate D2E/DX2                !
 ! D38   D(23,6,7,24)            2.248          estimate D2E/DX2                !
 ! D39   D(7,6,11,10)           -3.3153         estimate D2E/DX2                !
 ! D40   D(7,6,11,12)          179.9748         estimate D2E/DX2                !
 ! D41   D(23,6,11,10)         174.395          estimate D2E/DX2                !
 ! D42   D(23,6,11,12)          -2.3149         estimate D2E/DX2                !
 ! D43   D(6,7,8,9)              1.7289         estimate D2E/DX2                !
 ! D44   D(6,7,8,25)          -179.9205         estimate D2E/DX2                !
 ! D45   D(24,7,8,9)          -177.3911         estimate D2E/DX2                !
 ! D46   D(24,7,8,25)            0.9595         estimate D2E/DX2                !
 ! D47   D(7,8,9,10)            -1.7307         estimate D2E/DX2                !
 ! D48   D(7,8,9,26)           177.3809         estimate D2E/DX2                !
 ! D49   D(25,8,9,10)          179.9187         estimate D2E/DX2                !
 ! D50   D(25,8,9,26)           -0.9697         estimate D2E/DX2                !
 ! D51   D(8,9,10,11)           -0.8516         estimate D2E/DX2                !
 ! D52   D(8,9,10,27)          176.8869         estimate D2E/DX2                !
 ! D53   D(26,9,10,11)        -179.9702         estimate D2E/DX2                !
 ! D54   D(26,9,10,27)          -2.2317         estimate D2E/DX2                !
 ! D55   D(9,10,11,6)            3.3134         estimate D2E/DX2                !
 ! D56   D(9,10,11,12)        -179.9766         estimate D2E/DX2                !
 ! D57   D(27,10,11,6)        -174.4012         estimate D2E/DX2                !
 ! D58   D(27,10,11,12)          2.3087         estimate D2E/DX2                !
 ! D59   D(6,11,12,5)         -178.777          estimate D2E/DX2                !
 ! D60   D(6,11,12,13)          -4.5732         estimate D2E/DX2                !
 ! D61   D(10,11,12,5)           4.6599         estimate D2E/DX2                !
 ! D62   D(10,11,12,13)        178.8637         estimate D2E/DX2                !
 ! D63   D(5,12,13,14)         138.5248         estimate D2E/DX2                !
 ! D64   D(5,12,13,17)         -32.0122         estimate D2E/DX2                !
 ! D65   D(11,12,13,14)        -36.2452         estimate D2E/DX2                !
 ! D66   D(11,12,13,17)        153.2179         estimate D2E/DX2                !
 ! D67   D(12,13,14,15)       -171.8702         estimate D2E/DX2                !
 ! D68   D(12,13,14,28)          3.4891         estimate D2E/DX2                !
 ! D69   D(17,13,14,15)         -0.4908         estimate D2E/DX2                !
 ! D70   D(17,13,14,28)        174.8685         estimate D2E/DX2                !
 ! D71   D(12,13,17,16)        172.9373         estimate D2E/DX2                !
 ! D72   D(12,13,17,19)         -5.9485         estimate D2E/DX2                !
 ! D73   D(14,13,17,16)          0.2072         estimate D2E/DX2                !
 ! D74   D(14,13,17,19)       -178.6786         estimate D2E/DX2                !
 ! D75   D(13,14,15,16)          0.5763         estimate D2E/DX2                !
 ! D76   D(13,14,15,41)       -178.9104         estimate D2E/DX2                !
 ! D77   D(28,14,15,16)       -174.7056         estimate D2E/DX2                !
 ! D78   D(28,14,15,41)          5.8078         estimate D2E/DX2                !
 ! D79   D(14,15,16,17)         -0.4595         estimate D2E/DX2                !
 ! D80   D(14,15,16,29)       -179.1546         estimate D2E/DX2                !
 ! D81   D(41,15,16,17)        179.041          estimate D2E/DX2                !
 ! D82   D(41,15,16,29)          0.3459         estimate D2E/DX2                !
 ! D83   D(14,15,41,42)       -173.0047         estimate D2E/DX2                !
 ! D84   D(14,15,41,43)          6.7562         estimate D2E/DX2                !
 ! D85   D(16,15,41,42)          7.6051         estimate D2E/DX2                !
 ! D86   D(16,15,41,43)       -172.634          estimate D2E/DX2                !
 ! D87   D(15,16,17,13)          0.1603         estimate D2E/DX2                !
 ! D88   D(15,16,17,19)        178.9649         estimate D2E/DX2                !
 ! D89   D(29,16,17,13)        179.007          estimate D2E/DX2                !
 ! D90   D(29,16,17,19)         -2.1885         estimate D2E/DX2                !
 ! D91   D(13,17,19,1)          38.3708         estimate D2E/DX2                !
 ! D92   D(13,17,19,18)        155.7069         estimate D2E/DX2                !
 ! D93   D(13,17,19,20)        -79.2294         estimate D2E/DX2                !
 ! D94   D(16,17,19,1)        -140.2907         estimate D2E/DX2                !
 ! D95   D(16,17,19,18)        -22.9546         estimate D2E/DX2                !
 ! D96   D(16,17,19,20)        102.1091         estimate D2E/DX2                !
 ! D97   D(3,30,31,33)         179.5871         estimate D2E/DX2                !
 ! D98   D(3,30,31,36)          -1.0368         estimate D2E/DX2                !
 ! D99   D(32,30,31,33)         -0.1663         estimate D2E/DX2                !
 ! D100  D(32,30,31,36)        179.2098         estimate D2E/DX2                !
 ! D101  D(3,30,32,34)        -179.6061         estimate D2E/DX2                !
 ! D102  D(3,30,32,37)          -0.2542         estimate D2E/DX2                !
 ! D103  D(31,30,32,34)          0.1463         estimate D2E/DX2                !
 ! D104  D(31,30,32,37)        179.4983         estimate D2E/DX2                !
 ! D105  D(30,31,33,35)          0.0824         estimate D2E/DX2                !
 ! D106  D(30,31,33,38)        179.8969         estimate D2E/DX2                !
 ! D107  D(36,31,33,35)       -179.2945         estimate D2E/DX2                !
 ! D108  D(36,31,33,38)          0.52           estimate D2E/DX2                !
 ! D109  D(30,32,34,35)         -0.0424         estimate D2E/DX2                !
 ! D110  D(30,32,34,39)        179.8229         estimate D2E/DX2                !
 ! D111  D(37,32,34,35)       -179.3978         estimate D2E/DX2                !
 ! D112  D(37,32,34,39)          0.4675         estimate D2E/DX2                !
 ! D113  D(31,33,35,34)          0.0254         estimate D2E/DX2                !
 ! D114  D(31,33,35,40)        179.9589         estimate D2E/DX2                !
 ! D115  D(38,33,35,34)       -179.7884         estimate D2E/DX2                !
 ! D116  D(38,33,35,40)          0.1451         estimate D2E/DX2                !
 ! D117  D(32,34,35,33)         -0.0453         estimate D2E/DX2                !
 ! D118  D(32,34,35,40)       -179.9788         estimate D2E/DX2                !
 ! D119  D(39,34,35,33)       -179.91           estimate D2E/DX2                !
 ! D120  D(39,34,35,40)          0.1565         estimate D2E/DX2                !
 ! D121  D(15,41,42,44)        179.6373         estimate D2E/DX2                !
 ! D122  D(15,41,42,47)          0.2615         estimate D2E/DX2                !
 ! D123  D(43,41,42,44)         -0.1292         estimate D2E/DX2                !
 ! D124  D(43,41,42,47)       -179.505          estimate D2E/DX2                !
 ! D125  D(15,41,43,45)       -179.6149         estimate D2E/DX2                !
 ! D126  D(15,41,43,48)          0.99           estimate D2E/DX2                !
 ! D127  D(42,41,43,45)          0.1525         estimate D2E/DX2                !
 ! D128  D(42,41,43,48)       -179.2427         estimate D2E/DX2                !
 ! D129  D(41,42,44,46)          0.0348         estimate D2E/DX2                !
 ! D130  D(41,42,44,49)       -179.8356         estimate D2E/DX2                !
 ! D131  D(47,42,44,46)        179.4141         estimate D2E/DX2                !
 ! D132  D(47,42,44,49)         -0.4564         estimate D2E/DX2                !
 ! D133  D(41,43,45,46)         -0.0814         estimate D2E/DX2                !
 ! D134  D(41,43,45,50)       -179.896          estimate D2E/DX2                !
 ! D135  D(48,43,45,46)        179.3146         estimate D2E/DX2                !
 ! D136  D(48,43,45,50)         -0.5            estimate D2E/DX2                !
 ! D137  D(42,44,46,45)          0.0397         estimate D2E/DX2                !
 ! D138  D(42,44,46,51)        179.9742         estimate D2E/DX2                !
 ! D139  D(49,44,46,45)        179.9095         estimate D2E/DX2                !
 ! D140  D(49,44,46,51)         -0.156          estimate D2E/DX2                !
 ! D141  D(43,45,46,44)         -0.0165         estimate D2E/DX2                !
 ! D142  D(43,45,46,51)       -179.951          estimate D2E/DX2                !
 ! D143  D(50,45,46,44)        179.7974         estimate D2E/DX2                !
 ! D144  D(50,45,46,51)         -0.1372         estimate D2E/DX2                !
 --------------------------------------------------------------------------------
 Trust Radius=3.00D-01 FncErr=5.00D-06 GrdErr=5.00D-06 EigMax=2.50D+02 EigMin=1.00D-04
 Number of steps in this run=    303 maximum allowed number of steps=    306.
 GradGradGradGradGradGradGradGradGradGradGradGradGradGradGradGradGradGrad

 Leave Link  103 at Wed Feb  2 00:45:17 2022, MaxMem= 49660559360 cpu:               1.1 elap:               0.0
 (Enter /lustre1/prg/gaussian/bin/G16_C01_Linda_AVX2/g16/l202.exe)
 Symmetry turned off by external request.
 Stoichiometry    C27H19BF2N2
 Framework group  C1[X(C27H19BF2N2)]
 Deg. of freedom   147
 Full point group                 C1      NOp   1
                          Input orientation:                          
 ---------------------------------------------------------------------
 Center     Atomic      Atomic             Coordinates (Angstroms)
 Number     Number       Type             X           Y           Z
 ---------------------------------------------------------------------
      1          7           0       12.945495   -9.174412   -0.679183
      2          6           0       14.092112   -9.799842   -0.436560
      3          6           0       14.921122   -8.980550    0.380030
      4          6           0       14.181846   -7.803357    0.627113
      5          6           0       12.955204   -7.921139   -0.037781
      6          6           0       10.550196   -4.933348    0.106292
      7          6           0       10.557751   -3.548462    0.203967
      8          6           0       11.762738   -2.844497    0.255645
      9          6           0       12.964232   -3.551316    0.170888
     10          6           0       12.965839   -4.936211    0.073125
     11          6           0       11.756912   -5.674888    0.074155
     12          6           0       11.753822   -7.118209   -0.027018
     13          6           0       10.550601   -7.918360   -0.006596
     14          6           0        9.341922   -7.798056    0.689929
     15          6           0        8.593491   -8.973265    0.461283
     16          6           0        9.399142   -9.794053   -0.376936
     17          7           0       10.540639   -9.171330   -0.648696
     18          9           0       11.729325  -11.066300   -1.557376
     19          5           0       11.731838   -9.681291   -1.499920
     20          9           0       11.716587   -9.100669   -2.761279
     21          1           0       14.279872  -10.781493   -0.863932
     22          1           0       14.465943   -6.985240    1.280090
     23          1           0        9.596038   -5.447170    0.016440
     24          1           0        9.609417   -3.010424    0.225776
     25          1           0       11.765089   -1.757224    0.333630
     26          1           0       13.914059   -3.015500    0.166440
     27          1           0       13.915973   -5.452313   -0.042773
     28          1           0        9.076724   -6.979521    1.350250
     29          1           0        9.198265  -10.775168   -0.799536
     30          6           0       16.261984   -9.311568    0.841745
     31          6           0       17.047392   -8.354070    1.511655
     32          6           0       16.804937  -10.595026    0.636028
     33          6           0       18.324017   -8.669587    1.960955
     34          6           0       18.081955  -10.907098    1.086208
     35          6           0       18.848294   -9.947157    1.751233
     36          1           0       16.654251   -7.349732    1.671466
     37          1           0       16.216128  -11.358916    0.127430
     38          1           0       18.917216   -7.913511    2.476214
     39          1           0       18.483020  -11.907252    0.919624
     40          1           0       19.850327  -10.193439    2.103589
     41          6           0        7.264162   -9.301392    0.957008
     42          6           0        6.710301  -10.581301    0.758278
     43          6           0        6.501042   -8.344682    1.653369
     44          6           0        5.444286  -10.890665    1.240246
     45          6           0        5.235403   -8.657499    2.134492
     46          6           0        4.700043   -9.931480    1.931050
     47          1           0        7.281854  -11.344612    0.229513
     48          1           0        6.902777   -7.343117    1.809108
     49          1           0        5.034503  -11.888042    1.078327
     50          1           0        4.659458   -7.902060    2.669901
     51          1           0        3.706572  -10.175574    2.308294
 ---------------------------------------------------------------------
 Rotational constants (GHZ):           0.1897419           0.0762903           0.0617891
 Leave Link  202 at Wed Feb  2 00:45:17 2022, MaxMem= 49660559360 cpu:               0.5 elap:               0.0
 (Enter /lustre1/prg/gaussian/bin/G16_C01_Linda_AVX2/g16/l301.exe)
 Standard basis: CC-pVDZ (5D, 7F)
 Ernie: Thresh=  0.10000D-02 Tol=  0.10000D-05 Strict=F.
 Ernie:  64 primitive shells out of 799 were deleted.
   543 basis functions,  1189 primitive gaussians,   575 cartesian basis functions
   109 alpha electrons      109 beta electrons
       nuclear repulsion energy      2854.7840603499 Hartrees.
 IExCor= 4336 DFT=T Ex+Corr=M062X ExCW=0 ScaHFX=  0.540000
 ScaDFX=  1.000000  1.000000  1.000000  1.000000 ScalE2=  1.000000  1.000000
 IRadAn=      5 IRanWt=     -1 IRanGd=            0 ICorTp=0 IEmpDi=  4
 NAtoms=   51 NActive=   51 NUniq=   51 SFac= 1.00D+00 NAtFMM=   60 NAOKFM=F Big=F
 Integral buffers will be    131072 words long.
 Regular integral format.
 Two-electron integral symmetry is turned off.
 ------------------------------------------------------------------------------
 Polarizable Continuum Model (PCM)
 =================================
 Model                : C-PCM.
 Atomic radii         : UFF (Universal Force Field).
 Polarization charges : Total charges.
 Charge compensation  : None.
 Solution method      : On-the-fly selection.
 Cavity type          : Scaled VdW (van der Waals Surface) (Alpha=1.100).
 Cavity algorithm     : GePol (No added spheres)
                        Default sphere list used, NSphG=   51.
                        Lebedev-Laikov grids with approx.  5.0 points / Ang**2.
                        Smoothing algorithm: York/Karplus (Gamma=1.0000).
                        Polarization charges: spherical gaussians, with
                                              point-specific exponents (IZeta= 3).
                        Self-potential: point-specific (ISelfS= 7).
                        Self-field    : sphere-specific E.n sum rule (ISelfD= 2).
 1st derivatives      : Analytical E(r).r(x)/FMM algorithm (CHGder, D1EAlg=3).
                        Cavity 1st derivative terms included.
 Solvent              : Acetone, Eps=  20.493000 Eps(inf)=   1.846337
 ------------------------------------------------------------------------------
 GePol: Number of generator spheres                  =      51
 GePol: Total number of spheres                      =      51
 GePol: Number of exposed spheres                    =      51 (100.00%)
 GePol: Number of points                             =    3827
 GePol: Average weight of points                     =       0.13
 GePol: Minimum weight of points                     =   0.10D-10
 GePol: Maximum weight of points                     =    0.20577
 GePol: Number of points with low weight             =     281
 GePol: Fraction of low-weight points (<1% of avg)   =       7.34%
 GePol: Cavity surface area                          =    487.858 Ang**2
 GePol: Cavity volume                                =    553.325 Ang**3
 Leave Link  301 at Wed Feb  2 00:45:18 2022, MaxMem= 49660559360 cpu:               2.8 elap:               0.1
 (Enter /lustre1/prg/gaussian/bin/G16_C01_Linda_AVX2/g16/linda-exe/l302.exel)
 NPDir=0 NMtPBC=     1 NCelOv=     1 NCel=       1 NClECP=     1 NCelD=      1
         NCelK=      1 NCelE2=     1 NClLst=     1 CellRange=     0.0.
 One-electron integrals computed using PRISM.
 NBasis=   543 RedAO= T EigKep=  2.66D-04  NBF=   543
 NBsUse=   543 1.00D-06 EigRej= -1.00D+00 NBFU=   543
 Precomputing XC quadrature grid using
 IXCGrd= 4 IRadAn=           5 IRanWt=          -1 IRanGd=           0 AccXCQ= 0.00D+00.
 Generated NRdTot=       0 NPtTot=           0 NUsed=           0 NTot=          32
 NSgBfM=   557   557   557   557   557 MxSgAt=    51 MxSgA2=    51.
 Leave Link  302 at Wed Feb  2 00:45:20 2022, MaxMem= 49660559360 cpu:              42.1 elap:               1.3
 (Enter /lustre1/prg/gaussian/bin/G16_C01_Linda_AVX2/g16/l303.exe)
 DipDrv:  MaxL=1.
 Leave Link  303 at Wed Feb  2 00:45:20 2022, MaxMem= 49660559360 cpu:               4.9 elap:               0.2
 (Enter /lustre1/prg/gaussian/bin/G16_C01_Linda_AVX2/g16/l308.exe)
 Leave Link  308 at Wed Feb  2 00:45:21 2022, MaxMem= 49660559360 cpu:               6.4 elap:               0.2
 (Enter /lustre1/prg/gaussian/bin/G16_C01_Linda_AVX2/g16/linda-exe/l401.exel)
 ExpMin= 9.54D-02 ExpMax= 1.47D+04 ExpMxC= 5.03D+02 IAcc=3 IRadAn=         5 AccDes= 0.00D+00
 Harris functional with IExCor= 1009 and IRadAn=       5 diagonalized for initial guess.
 HarFok:  IExCor= 1009 AccDes= 0.00D+00 IRadAn=         5 IDoV= 1 UseB2=F ITyADJ=14
 ICtDFT=  3500011 ScaDFX=  1.000000  1.000000  1.000000  1.000000
 FoFCou: FMM=F IPFlag=           0 FMFlag=      100000 FMFlg1=           0
         NFxFlg=           0 DoJE=T BraDBF=F KetDBF=T FulRan=T
         wScrn=  0.000000 ICntrl=       500 IOpCl=  0 I1Cent=   200000004 NGrid=           0
         NMat0=    1 NMatS0=      1 NMatT0=    0 NMatD0=    1 NMtDS0=    0 NMtDT0=    0
 Symmetry not used in FoFCou.
 Harris En= -1373.26771014874    
 JPrj=0 DoOrth=F DoCkMO=F.
 Leave Link  401 at Wed Feb  2 00:45:24 2022, MaxMem= 49660559360 cpu:              76.5 elap:               2.5
 (Enter /lustre1/prg/gaussian/bin/G16_C01_Linda_AVX2/g16/linda-exe/l502.exel)
 Two-electron integral symmetry not used.
 Closed shell SCF:
 Using DIIS extrapolation, IDIIS=  1040.
 NGot= 49660559360 LenX= 49659873915 LenY= 49659542715
 Requested convergence on RMS density matrix=1.00D-08 within 128 cycles.
 Requested convergence on MAX density matrix=1.00D-06.
 Requested convergence on             energy=1.00D-06.
 No special actions if energy rises.
 Fock matrices will be formed incrementally for  20 cycles.

 Cycle   1  Pass 1  IDiag  1:
 FoFJK:  IHMeth= 1 ICntrl=       0 DoSepK=F KAlg= 0 I1Cent=           0 FoldK=F
 IRaf= 690000000 NMat=       1 IRICut=       1 DoRegI=T DoRafI=F ISym2E= 0 IDoP0=0 IntGTp=1.
 FoFCou: FMM=F IPFlag=           0 FMFlag=      100000 FMFlg1=           0
         NFxFlg=           0 DoJE=F BraDBF=F KetDBF=F FulRan=T
         wScrn=  0.000000 ICntrl=         0 IOpCl=  0 I1Cent=           0 NGrid=           0
         NMat0=    1 NMatS0=      1 NMatT0=    0 NMatD0=    1 NMtDS0=    0 NMtDT0=    0
 Symmetry not used in FoFCou.
 Inv3:  Mode=1 IEnd=    43937787.
 Iteration    1 A*A^-1 deviation from unit magnitude is 4.44D-15 for   2412.
 Iteration    1 A*A^-1 deviation from orthogonality  is 3.33D-15 for   2645   1137.
 Iteration    1 A^-1*A deviation from unit magnitude is 4.44D-15 for   2412.
 Iteration    1 A^-1*A deviation from orthogonality  is 3.11D-15 for   2645   1137.
 E= -1373.61375738316    
 DIIS: error= 4.36D-02 at cycle   1 NSaved=   1.
 NSaved= 1 IEnMin= 1 EnMin= -1373.61375738316     IErMin= 1 ErrMin= 4.36D-02
 ErrMax= 4.36D-02  0.00D+00 EMaxC= 1.00D-01 BMatC= 5.21D-01 BMatP= 5.21D-01
 IDIUse=3 WtCom= 5.64D-01 WtEn= 4.36D-01
 Coeff-Com:  0.100D+01
 Coeff-En:   0.100D+01
 Coeff:      0.100D+01
 Gap=     0.124 Goal=   None    Shift=    0.000
 GapD=    0.124 DampG=1.000 DampE=0.500 DampFc=0.5000 IDamp=-1.
 Damping current iteration by 5.00D-01
 RMSDP=3.25D-03 MaxDP=1.00D-01              OVMax= 1.60D-01

 Cycle   2  Pass 1  IDiag  1:
 RMSU=  1.52D-03    CP:  9.62D-01
 E= -1373.88762758350     Delta-E=       -0.273870200341 Rises=F Damp=T
 DIIS: error= 8.66D-03 at cycle   2 NSaved=   2.
 NSaved= 2 IEnMin= 2 EnMin= -1373.88762758350     IErMin= 2 ErrMin= 8.66D-03
 ErrMax= 8.66D-03  0.00D+00 EMaxC= 1.00D-01 BMatC= 4.54D-02 BMatP= 5.21D-01
 IDIUse=3 WtCom= 9.13D-01 WtEn= 8.66D-02
 Coeff-Com: -0.132D+00 0.113D+01
 Coeff-En:   0.000D+00 0.100D+01
 Coeff:     -0.121D+00 0.112D+01
 Gap=     0.158 Goal=   None    Shift=    0.000
 RMSDP=1.15D-03 MaxDP=6.78D-02 DE=-2.74D-01 OVMax= 1.00D-01

 Cycle   3  Pass 1  IDiag  1:
 RMSU=  8.29D-04    CP:  9.35D-01  1.45D+00
 E= -1374.12734846349     Delta-E=       -0.239720879996 Rises=F Damp=F
 DIIS: error= 5.50D-03 at cycle   3 NSaved=   3.
 NSaved= 3 IEnMin= 3 EnMin= -1374.12734846349     IErMin= 3 ErrMin= 5.50D-03
 ErrMax= 5.50D-03  0.00D+00 EMaxC= 1.00D-01 BMatC= 2.07D-02 BMatP= 4.54D-02
 IDIUse=3 WtCom= 9.45D-01 WtEn= 5.50D-02
 Coeff-Com: -0.116D+00 0.487D+00 0.629D+00
 Coeff-En:   0.000D+00 0.000D+00 0.100D+01
 Coeff:     -0.110D+00 0.461D+00 0.649D+00
 Gap=     0.133 Goal=   None    Shift=    0.000
 RMSDP=3.64D-04 MaxDP=2.79D-02 DE=-2.40D-01 OVMax= 5.42D-02

 Cycle   4  Pass 1  IDiag  1:
 RMSU=  2.58D-04    CP:  9.37D-01  1.48D+00  6.96D-01
 E= -1374.14352255771     Delta-E=       -0.016174094221 Rises=F Damp=F
 DIIS: error= 2.60D-03 at cycle   4 NSaved=   4.
 NSaved= 4 IEnMin= 4 EnMin= -1374.14352255771     IErMin= 4 ErrMin= 2.60D-03
 ErrMax= 2.60D-03  0.00D+00 EMaxC= 1.00D-01 BMatC= 4.55D-03 BMatP= 2.07D-02
 IDIUse=3 WtCom= 9.74D-01 WtEn= 2.60D-02
 Coeff-Com: -0.395D-01 0.111D+00 0.353D+00 0.576D+00
 Coeff-En:   0.000D+00 0.000D+00 0.174D+00 0.826D+00
 Coeff:     -0.385D-01 0.108D+00 0.348D+00 0.582D+00
 Gap=     0.136 Goal=   None    Shift=    0.000
 RMSDP=1.32D-04 MaxDP=1.00D-02 DE=-1.62D-02 OVMax= 2.06D-02

 Cycle   5  Pass 1  IDiag  1:
 RMSU=  6.24D-05    CP:  9.36D-01  1.48D+00  7.87D-01  6.62D-01
 E= -1374.14798477803     Delta-E=       -0.004462220318 Rises=F Damp=F
 DIIS: error= 3.53D-04 at cycle   5 NSaved=   5.
 NSaved= 5 IEnMin= 5 EnMin= -1374.14798477803     IErMin= 5 ErrMin= 3.53D-04
 ErrMax= 3.53D-04  0.00D+00 EMaxC= 1.00D-01 BMatC= 1.92D-04 BMatP= 4.55D-03
 IDIUse=3 WtCom= 9.96D-01 WtEn= 3.53D-03
 Coeff-Com: -0.888D-02 0.143D-01 0.108D+00 0.257D+00 0.629D+00
 Coeff-En:   0.000D+00 0.000D+00 0.000D+00 0.000D+00 0.100D+01
 Coeff:     -0.885D-02 0.143D-01 0.108D+00 0.256D+00 0.630D+00
 Gap=     0.136 Goal=   None    Shift=    0.000
 RMSDP=2.97D-05 MaxDP=1.71D-03 DE=-4.46D-03 OVMax= 3.30D-03

 Cycle   6  Pass 1  IDiag  1:
 RMSU=  2.13D-05    CP:  9.36D-01  1.48D+00  7.90D-01  7.01D-01  7.26D-01
 E= -1374.14817422375     Delta-E=       -0.000189445718 Rises=F Damp=F
 DIIS: error= 1.23D-04 at cycle   6 NSaved=   6.
 NSaved= 6 IEnMin= 6 EnMin= -1374.14817422375     IErMin= 6 ErrMin= 1.23D-04
 ErrMax= 1.23D-04  0.00D+00 EMaxC= 1.00D-01 BMatC= 1.14D-05 BMatP= 1.92D-04
 IDIUse=3 WtCom= 9.99D-01 WtEn= 1.23D-03
 Coeff-Com: -0.123D-02-0.465D-03 0.208D-01 0.634D-01 0.251D+00 0.666D+00
 Coeff-En:   0.000D+00 0.000D+00 0.000D+00 0.000D+00 0.000D+00 0.100D+01
 Coeff:     -0.123D-02-0.465D-03 0.208D-01 0.633D-01 0.251D+00 0.667D+00
 Gap=     0.136 Goal=   None    Shift=    0.000
 RMSDP=8.68D-06 MaxDP=3.72D-04 DE=-1.89D-04 OVMax= 1.88D-03

 Cycle   7  Pass 1  IDiag  1:
 RMSU=  6.69D-06    CP:  9.36D-01  1.48D+00  7.92D-01  7.05D-01  8.04D-01
                    CP:  9.06D-01
 E= -1374.14818844011     Delta-E=       -0.000014216357 Rises=F Damp=F
 DIIS: error= 3.13D-05 at cycle   7 NSaved=   7.
 NSaved= 7 IEnMin= 7 EnMin= -1374.14818844011     IErMin= 7 ErrMin= 3.13D-05
 ErrMax= 3.13D-05  0.00D+00 EMaxC= 1.00D-01 BMatC= 1.07D-06 BMatP= 1.14D-05
 IDIUse=1 WtCom= 1.00D+00 WtEn= 0.00D+00
 Coeff-Com:  0.733D-03-0.208D-02-0.633D-02-0.100D-01 0.374D-02 0.205D+00
 Coeff-Com:  0.809D+00
 Coeff:      0.733D-03-0.208D-02-0.633D-02-0.100D-01 0.374D-02 0.205D+00
 Coeff:      0.809D+00
 Gap=     0.136 Goal=   None    Shift=    0.000
 RMSDP=3.60D-06 MaxDP=1.16D-04 DE=-1.42D-05 OVMax= 6.21D-04

 Cycle   8  Pass 1  IDiag  1:
 RMSU=  2.31D-06    CP:  9.36D-01  1.48D+00  7.92D-01  7.09D-01  8.20D-01
                    CP:  1.01D+00  1.05D+00
 E= -1374.14819019198     Delta-E=       -0.000001751870 Rises=F Damp=F
 DIIS: error= 1.35D-05 at cycle   8 NSaved=   8.
 NSaved= 8 IEnMin= 8 EnMin= -1374.14819019198     IErMin= 8 ErrMin= 1.35D-05
 ErrMax= 1.35D-05  0.00D+00 EMaxC= 1.00D-01 BMatC= 2.34D-07 BMatP= 1.07D-06
 IDIUse=1 WtCom= 1.00D+00 WtEn= 0.00D+00
 Coeff-Com:  0.585D-03-0.938D-03-0.658D-02-0.157D-01-0.420D-01-0.117D-01
 Coeff-Com:  0.376D+00 0.701D+00
 Coeff:      0.585D-03-0.938D-03-0.658D-02-0.157D-01-0.420D-01-0.117D-01
 Coeff:      0.376D+00 0.701D+00
 Gap=     0.136 Goal=   None    Shift=    0.000
 RMSDP=1.59D-06 MaxDP=8.95D-05 DE=-1.75D-06 OVMax= 4.02D-04

 Cycle   9  Pass 1  IDiag  1:
 RMSU=  7.89D-07    CP:  9.36D-01  1.48D+00  7.92D-01  7.10D-01  8.29D-01
                    CP:  1.05D+00  1.17D+00  8.40D-01
 E= -1374.14819057465     Delta-E=       -0.000000382670 Rises=F Damp=F
 DIIS: error= 3.01D-06 at cycle   9 NSaved=   9.
 NSaved= 9 IEnMin= 9 EnMin= -1374.14819057465     IErMin= 9 ErrMin= 3.01D-06
 ErrMax= 3.01D-06  0.00D+00 EMaxC= 1.00D-01 BMatC= 1.04D-08 BMatP= 2.34D-07
 IDIUse=1 WtCom= 1.00D+00 WtEn= 0.00D+00
 Coeff-Com:  0.866D-04-0.816D-04-0.984D-03-0.270D-02-0.971D-02-0.132D-01
 Coeff-Com:  0.207D-01 0.172D+00 0.834D+00
 Coeff:      0.866D-04-0.816D-04-0.984D-03-0.270D-02-0.971D-02-0.132D-01
 Coeff:      0.207D-01 0.172D+00 0.834D+00
 Gap=     0.136 Goal=   None    Shift=    0.000
 RMSDP=4.38D-07 MaxDP=1.56D-05 DE=-3.83D-07 OVMax= 9.66D-05

 Cycle  10  Pass 1  IDiag  1:
 RMSU=  2.60D-07    CP:  9.36D-01  1.48D+00  7.92D-01  7.10D-01  8.30D-01
                    CP:  1.06D+00  1.20D+00  9.29D-01  1.06D+00
 E= -1374.14819059519     Delta-E=       -0.000000020544 Rises=F Damp=F
 DIIS: error= 1.38D-06 at cycle  10 NSaved=  10.
 NSaved=10 IEnMin=10 EnMin= -1374.14819059519     IErMin=10 ErrMin= 1.38D-06
 ErrMax= 1.38D-06  0.00D+00 EMaxC= 1.00D-01 BMatC= 2.30D-09 BMatP= 1.04D-08
 IDIUse=1 WtCom= 1.00D+00 WtEn= 0.00D+00
 Coeff-Com: -0.368D-04 0.822D-04 0.440D-03 0.932D-03 0.122D-02-0.434D-02
 Coeff-Com: -0.453D-01-0.151D-01 0.351D+00 0.711D+00
 Coeff:     -0.368D-04 0.822D-04 0.440D-03 0.932D-03 0.122D-02-0.434D-02
 Coeff:     -0.453D-01-0.151D-01 0.351D+00 0.711D+00
 Gap=     0.136 Goal=   None    Shift=    0.000
 RMSDP=1.58D-07 MaxDP=7.03D-06 DE=-2.05D-08 OVMax= 4.10D-05

 Cycle  11  Pass 1  IDiag  1:
 RMSU=  9.11D-08    CP:  9.36D-01  1.48D+00  7.92D-01  7.10D-01  8.31D-01
                    CP:  1.06D+00  1.21D+00  9.52D-01  1.18D+00  9.57D-01
 E= -1374.14819059878     Delta-E=       -0.000000003588 Rises=F Damp=F
 DIIS: error= 7.53D-07 at cycle  11 NSaved=  11.
 NSaved=11 IEnMin=11 EnMin= -1374.14819059878     IErMin=11 ErrMin= 7.53D-07
 ErrMax= 7.53D-07  0.00D+00 EMaxC= 1.00D-01 BMatC= 3.53D-10 BMatP= 2.30D-09
 IDIUse=1 WtCom= 1.00D+00 WtEn= 0.00D+00
 Coeff-Com: -0.268D-04 0.468D-04 0.312D-03 0.744D-03 0.167D-02-0.354D-03
 Coeff-Com: -0.238D-01-0.256D-01 0.524D-01 0.332D+00 0.663D+00
 Coeff:     -0.268D-04 0.468D-04 0.312D-03 0.744D-03 0.167D-02-0.354D-03
 Coeff:     -0.238D-01-0.256D-01 0.524D-01 0.332D+00 0.663D+00
 Gap=     0.136 Goal=   None    Shift=    0.000
 RMSDP=5.66D-08 MaxDP=2.30D-06 DE=-3.59D-09 OVMax= 8.68D-06

 Cycle  12  Pass 1  IDiag  1:
 RMSU=  3.34D-08    CP:  9.36D-01  1.48D+00  7.92D-01  7.10D-01  8.31D-01
                    CP:  1.06D+00  1.21D+00  9.58D-01  1.20D+00  1.06D+00
                    CP:  9.22D-01
 E= -1374.14819059920     Delta-E=       -0.000000000424 Rises=F Damp=F
 DIIS: error= 1.61D-07 at cycle  12 NSaved=  12.
 NSaved=12 IEnMin=12 EnMin= -1374.14819059920     IErMin=12 ErrMin= 1.61D-07
 ErrMax= 1.61D-07  0.00D+00 EMaxC= 1.00D-01 BMatC= 3.05D-11 BMatP= 3.53D-10
 IDIUse=1 WtCom= 1.00D+00 WtEn= 0.00D+00
 Coeff-Com: -0.512D-05 0.691D-05 0.626D-04 0.165D-03 0.464D-03 0.448D-03
 Coeff-Com: -0.350D-02-0.521D-02-0.218D-01 0.601D-01 0.249D+00 0.720D+00
 Coeff:     -0.512D-05 0.691D-05 0.626D-04 0.165D-03 0.464D-03 0.448D-03
 Coeff:     -0.350D-02-0.521D-02-0.218D-01 0.601D-01 0.249D+00 0.720D+00
 Gap=     0.136 Goal=   None    Shift=    0.000
 RMSDP=1.67D-08 MaxDP=1.07D-06 DE=-4.24D-10 OVMax= 4.58D-06

 Cycle  13  Pass 1  IDiag  1:
 RMSU=  1.16D-08    CP:  9.36D-01  1.48D+00  7.92D-01  7.10D-01  8.31D-01
                    CP:  1.06D+00  1.21D+00  9.59D-01  1.21D+00  1.08D+00
                    CP:  1.01D+00  9.28D-01
 E= -1374.14819059925     Delta-E=       -0.000000000052 Rises=F Damp=F
 DIIS: error= 5.83D-08 at cycle  13 NSaved=  13.
 NSaved=13 IEnMin=13 EnMin= -1374.14819059925     IErMin=13 ErrMin= 5.83D-08
 ErrMax= 5.83D-08  0.00D+00 EMaxC= 1.00D-01 BMatC= 5.01D-12 BMatP= 3.05D-11
 IDIUse=1 WtCom= 1.00D+00 WtEn= 0.00D+00
 Coeff-Com:  0.188D-05-0.386D-05-0.206D-04-0.451D-04-0.646D-04 0.178D-03
 Coeff-Com:  0.161D-02 0.197D-02-0.176D-01-0.210D-01-0.303D-01 0.230D+00
 Coeff-Com:  0.835D+00
 Coeff:      0.188D-05-0.386D-05-0.206D-04-0.451D-04-0.646D-04 0.178D-03
 Coeff:      0.161D-02 0.197D-02-0.176D-01-0.210D-01-0.303D-01 0.230D+00
 Coeff:      0.835D+00
 Gap=     0.136 Goal=   None    Shift=    0.000
 RMSDP=9.55D-09 MaxDP=2.91D-07 DE=-5.18D-11 OVMax= 1.74D-06

 Error on total polarization charges =  0.01565
 SCF Done:  E(RM062X) =  -1374.14819060     A.U. after   13 cycles
            NFock= 13  Conv=0.95D-08     -V/T= 2.0063
 KE= 1.365535405005D+03 PE=-8.909829702999D+03 EE= 3.315362047044D+03
 Leave Link  502 at Wed Feb  2 00:46:50 2022, MaxMem= 49660559360 cpu:            2644.5 elap:              85.4
 (Enter /lustre1/prg/gaussian/bin/G16_C01_Linda_AVX2/g16/l801.exe)
 DoSCS=F DFT=T ScalE2(SS,OS)=  1.000000  1.000000
 ExpMin= 9.54D-02 ExpMax= 1.47D+04 ExpMxC= 5.03D+02 IAcc=3 IRadAn=         5 AccDes= 0.00D+00
 HarFok:  IExCor=  205 AccDes= 0.00D+00 IRadAn=         5 IDoV=-2 UseB2=F ITyADJ=14
 ICtDFT= 12500011 ScaDFX=  1.000000  1.000000  1.000000  1.000000
 GSVD:  LWork=       -1280 too small for GESVD, short by        5600 words or        5600 for optimal perf.
 Largest valence mixing into a core orbital is  7.94D-05
 Largest core mixing into a valence orbital is  5.09D-05
 Range of M.O.s used for correlation:    33   543
 NBasis=   543 NAE=   109 NBE=   109 NFC=    32 NFV=     0
 NROrb=    511 NOA=    77 NOB=    77 NVA=   434 NVB=   434

 **** Warning!!: The largest alpha MO coefficient is  0.12243674D+02

 Leave Link  801 at Wed Feb  2 00:46:51 2022, MaxMem= 49660559360 cpu:               5.8 elap:               0.2
 (Enter /lustre1/prg/gaussian/bin/G16_C01_Linda_AVX2/g16/linda-exe/l914.exel)
 RHF ground state
 Two-electron integral symmetry not used.
 MDV= 49660559360 DFT=T DoStab=F Mixed=T DoRPA=T DoScal=F NonHer=T
 NEqPCM:  Using equilibrium solvation (IEInf=0, Eps=  20.4930, EpsInf=   1.8463)
 Making orbital integer symmetry assigments:
    24 initial guesses have been made.
 Convergence on wavefunction:    0.000001000000000
 Davidson Disk Diagonalization:  ConvIn= 1.00D-06 SkipCon=T Conv= 1.00D-06.
 Max sub-space:  2000 roots to seek:    24 dimension of matrix:        66836
 Iteration     1 Dimension    24 NMult     0 NNew     24
 CISAX will form    24 AO SS matrices at one time.
 NMat=    24 NSing=    24 JSym2X= 0.
 FoFJK:  IHMeth= 1 ICntrl=       0 DoSepK=F KAlg= 0 I1Cent=           0 FoldK=F
 IRaf= 690000000 NMat=      48 IRICut=      60 DoRegI=T DoRafI=T ISym2E= 0 IDoP0=3 IntGTp=3.
 FoFCou: FMM=F IPFlag=           0 FMFlag=      100000 FMFlg1=           0
         NFxFlg=           0 DoJE=F BraDBF=F KetDBF=F FulRan=T
         wScrn=  0.000000 ICntrl=         0 IOpCl=  0 I1Cent=           0 NGrid=           0
         NMat0=   48 NMatS0=     24 NMatT0=    0 NMatD0=   48 NMtDS0=    0 NMtDT0=    0
 Symmetry not used in FoFCou.
 Raff kept on since  64.55% of shell-pairs survive, threshold=   0.20 IRatSp=65.
 New state      4 was old state      6
 New state      5 was old state      7
 New state      6 was old state      5
 Excitation Energies [eV] at current iteration:
 Root      1 :     2.104028200915043
 Root      2 :     3.041686175367918
 Root      3 :     3.401894309849054
 Root      4 :     3.720406060833549
 Root      5 :     4.161823018708213
 Root      6 :     4.292849567673616
 Root      7 :     4.297806943530899
 Root      8 :     4.963180619052595
 Root      9 :     5.121083344695037
 Root     10 :     5.143115148718649
 Root     11 :     5.405366364906316
 Root     12 :     5.470040549474730
 Root     13 :     5.502851423003541
 Root     14 :     5.865609191006178
 Root     15 :     5.892143278331299
 Root     16 :     6.133500207708195
 Root     17 :     6.271350931888292
 Root     18 :     6.293449511177862
 Root     19 :     6.380960753753606
 Root     20 :     6.416168494057952
 Root     21 :     6.454878962402290
 Root     22 :     6.480535522298585
 Root     23 :     6.607045373612676
 Root     24 :     6.951460008348847
 Iteration     2 Dimension    36 NMult    24 NNew     12
 CISAX will form    12 AO SS matrices at one time.
 NMat=    12 NSing=    12 JSym2X= 0.
 Root      1 not converged, maximum delta is    0.076651266057118
 Root      2 not converged, maximum delta is    0.059767848540326
 Root      3 not converged, maximum delta is    0.044552704917343
 Root      4 not converged, maximum delta is    0.063934720885782
 Root      5 not converged, maximum delta is    0.049033439055686
 Root      6 not converged, maximum delta is    0.027378146567065
 Excitation Energies [eV] at current iteration:
 Root      1 :     1.785839055884402   Change is   -0.318189145030641
 Root      2 :     2.758226460516915   Change is   -0.283459714851003
 Root      3 :     3.066111176513671   Change is   -0.335783133335383
 Root      4 :     3.379914795527761   Change is   -0.340491265305789
 Root      5 :     3.851912006415382   Change is   -0.309911012292832
 Root      6 :     4.253806899287337   Change is   -0.039042668386279
 Iteration     3 Dimension    48 NMult    36 NNew     12
 CISAX will form    12 AO SS matrices at one time.
 NMat=    12 NSing=    12 JSym2X= 0.
 Root      1 not converged, maximum delta is    0.011884256613887
 Root      2 not converged, maximum delta is    0.008341747837894
 Root      3 not converged, maximum delta is    0.008873544997220
 Root      4 not converged, maximum delta is    0.010459157577143
 Root      5 not converged, maximum delta is    0.031406874135161
 Root      6 not converged, maximum delta is    0.018717515921366
 Excitation Energies [eV] at current iteration:
 Root      1 :     1.767378064097002   Change is   -0.018460991787399
 Root      2 :     2.743982861215358   Change is   -0.014243599301557
 Root      3 :     3.053242177195648   Change is   -0.012868999318023
 Root      4 :     3.365474961773802   Change is   -0.014439833753959
 Root      5 :     3.823174779465810   Change is   -0.028737226949571
 Root      6 :     4.247325008692743   Change is   -0.006481890594594
 Iteration     4 Dimension    60 NMult    48 NNew     12
 CISAX will form    12 AO SS matrices at one time.
 NMat=    12 NSing=    12 JSym2X= 0.
 Root      1 not converged, maximum delta is    0.004114959520677
 Root      2 not converged, maximum delta is    0.003202081308964
 Root      3 not converged, maximum delta is    0.002621284012766
 Root      4 not converged, maximum delta is    0.004758144160297
 Root      5 not converged, maximum delta is    0.005171693407395
 Root      6 not converged, maximum delta is    0.008498033024118
 Excitation Energies [eV] at current iteration:
 Root      1 :     1.765435631954968   Change is   -0.001942432142035
 Root      2 :     2.741571393821243   Change is   -0.002411467394115
 Root      3 :     3.051863477865485   Change is   -0.001378699330164
 Root      4 :     3.363022055843525   Change is   -0.002452905930276
 Root      5 :     3.820871835976249   Change is   -0.002302943489562
 Root      6 :     4.245896692591921   Change is   -0.001428316100822
 Iteration     5 Dimension    72 NMult    60 NNew     12
 CISAX will form    12 AO SS matrices at one time.
 NMat=    12 NSing=    12 JSym2X= 0.
 Root      1 not converged, maximum delta is    0.000817476621057
 Root      2 not converged, maximum delta is    0.000668603011160
 Root      3 not converged, maximum delta is    0.001079984843824
 Root      4 not converged, maximum delta is    0.000816532984745
 Root      5 not converged, maximum delta is    0.001305689974448
 Root      6 not converged, maximum delta is    0.001182421544745
 Excitation Energies [eV] at current iteration:
 Root      1 :     1.765331418860019   Change is   -0.000104213094949
 Root      2 :     2.741425810411907   Change is   -0.000145583409335
 Root      3 :     3.051744566348453   Change is   -0.000118911517032
 Root      4 :     3.362811483015786   Change is   -0.000210572827740
 Root      5 :     3.820680702358676   Change is   -0.000191133617572
 Root      6 :     4.245812684357148   Change is   -0.000084008234773
 Iteration     6 Dimension    84 NMult    72 NNew     12
 CISAX will form    12 AO SS matrices at one time.
 NMat=    12 NSing=    12 JSym2X= 0.
 Root      1 not converged, maximum delta is    0.000164120503089
 Root      2 not converged, maximum delta is    0.000242170601795
 Root      3 not converged, maximum delta is    0.000311035440686
 Root      4 not converged, maximum delta is    0.000406631214577
 Root      5 not converged, maximum delta is    0.000165111552280
 Root      6 not converged, maximum delta is    0.001067737840247
 Excitation Energies [eV] at current iteration:
 Root      1 :     1.765325247910156   Change is   -0.000006170949863
 Root      2 :     2.741411892386308   Change is   -0.000013918025600
 Root      3 :     3.051735496823367   Change is   -0.000009069525086
 Root      4 :     3.362787634074397   Change is   -0.000023848941388
 Root      5 :     3.820672765200788   Change is   -0.000007937157889
 Root      6 :     4.245805594236564   Change is   -0.000007090120584
 Iteration     7 Dimension    96 NMult    84 NNew     12
 CISAX will form    12 AO SS matrices at one time.
 NMat=    12 NSing=    12 JSym2X= 0.
 Root      1 not converged, maximum delta is    0.000023344299863
 Root      2 not converged, maximum delta is    0.000081739240568
 Root      3 not converged, maximum delta is    0.000049642733863
 Root      4 not converged, maximum delta is    0.000183962792257
 Root      5 not converged, maximum delta is    0.000046698451587
 Root      6 not converged, maximum delta is    0.002687630965072
 Excitation Energies [eV] at current iteration:
 Root      1 :     1.765324958367695   Change is   -0.000000289542461
 Root      2 :     2.741410671858976   Change is   -0.000001220527332
 Root      3 :     3.051734995879928   Change is   -0.000000500943439
 Root      4 :     3.362784853401182   Change is   -0.000002780673215
 Root      5 :     3.820672313836218   Change is   -0.000000451364570
 Root      6 :     4.245803645894711   Change is   -0.000001948341854
 Iteration     8 Dimension   108 NMult    96 NNew     12
 CISAX will form    12 AO SS matrices at one time.
 NMat=    12 NSing=    12 JSym2X= 0.
 Root      1 not converged, maximum delta is    0.000006540081782
 Root      2 not converged, maximum delta is    0.000017543026395
 Root      3 not converged, maximum delta is    0.000013339226356
 Root      4 not converged, maximum delta is    0.000036217423170
 Root      5 not converged, maximum delta is    0.000009746425439
 Root      6 not converged, maximum delta is    0.024190267179856
 Excitation Energies [eV] at current iteration:
 Root      1 :     1.765324945947332   Change is   -0.000000012420363
 Root      2 :     2.741410571721170   Change is   -0.000000100137806
 Root      3 :     3.051734974045365   Change is   -0.000000021834564
 Root      4 :     3.362784541859779   Change is   -0.000000311541403
 Root      5 :     3.820672283030047   Change is   -0.000000030806171
 Root      6 :     4.245795664801086   Change is   -0.000007981093624
 Iteration     9 Dimension   120 NMult   108 NNew     12
 CISAX will form    12 AO SS matrices at one time.
 NMat=    12 NSing=    12 JSym2X= 0.
 Root      1 has converged.
 Root      2 not converged, maximum delta is    0.000003734501491
 Root      3 not converged, maximum delta is    0.000002657819908
 Root      4 not converged, maximum delta is    0.000009558269094
 Root      5 not converged, maximum delta is    0.000003031207708
 Root      6 not converged, maximum delta is    0.543499643266780
 Excitation Energies [eV] at current iteration:
 Root      1 :     1.765324945406864   Change is   -0.000000000540467
 Root      2 :     2.741410567291145   Change is   -0.000000004430025
 Root      3 :     3.051734972800615   Change is   -0.000000001244749
 Root      4 :     3.362784518707823   Change is   -0.000000023151956
 Root      5 :     3.820672281104255   Change is   -0.000000001925792
 Root      6 :     4.245160632733352   Change is   -0.000635032067735
 Iteration    10 Dimension   130 NMult   120 NNew     10
 CISAX will form    10 AO SS matrices at one time.
 NMat=    10 NSing=    10 JSym2X= 0.
 Root      1 has converged.
 Root      2 has converged.
 Root      3 has converged.
 Root      4 not converged, maximum delta is    0.000002074002208
 Root      5 has converged.
 Root      6 not converged, maximum delta is    0.057625490773178
 Excitation Energies [eV] at current iteration:
 Root      1 :     1.765324945405607   Change is   -0.000000000001258
 Root      2 :     2.741410567010014   Change is   -0.000000000281131
 Root      3 :     3.051734972743426   Change is   -0.000000000057189
 Root      4 :     3.362784517221344   Change is   -0.000000001486480
 Root      5 :     3.820672280981590   Change is   -0.000000000122665
 Root      6 :     4.244832740940969   Change is   -0.000327891792383
 Iteration    11 Dimension   134 NMult   130 NNew      4
 CISAX will form     4 AO SS matrices at one time.
 NMat=     4 NSing=     4 JSym2X= 0.
 Root      1 has converged.
 Root      2 has converged.
 Root      3 has converged.
 Root      4 has converged.
 Root      5 has converged.
 Root      6 not converged, maximum delta is    0.003955912381879
 Excitation Energies [eV] at current iteration:
 Root      1 :     1.765324945404350   Change is   -0.000000000001257
 Root      2 :     2.741410567008365   Change is   -0.000000000001649
 Root      3 :     3.051734972743292   Change is   -0.000000000000134
 Root      4 :     3.362784517115687   Change is   -0.000000000105657
 Root      5 :     3.820672280979417   Change is   -0.000000000002173
 Root      6 :     4.244796701222435   Change is   -0.000036039718534
 Iteration    12 Dimension   136 NMult   134 NNew      2
 CISAX will form     2 AO SS matrices at one time.
 NMat=     2 NSing=     2 JSym2X= 0.
 Root      1 has converged.
 Root      2 has converged.
 Root      3 has converged.
 Root      4 has converged.
 Root      5 has converged.
 Root      6 not converged, maximum delta is    0.000378547023302
 Excitation Energies [eV] at current iteration:
 Root      1 :     1.765324945404164   Change is   -0.000000000000186
 Root      2 :     2.741410567008095   Change is   -0.000000000000270
 Root      3 :     3.051734972742860   Change is   -0.000000000000431
 Root      4 :     3.362784517114954   Change is   -0.000000000000733
 Root      5 :     3.820672280978642   Change is   -0.000000000000775
 Root      6 :     4.244793368798740   Change is   -0.000003332423694
 Iteration    13 Dimension   138 NMult   136 NNew      2
 CISAX will form     2 AO SS matrices at one time.
 NMat=     2 NSing=     2 JSym2X= 0.
 Root      1 has converged.
 Root      2 has converged.
 Root      3 has converged.
 Root      4 has converged.
 Root      5 has converged.
 Root      6 not converged, maximum delta is    0.000052001121300
 Excitation Energies [eV] at current iteration:
 Root      1 :     1.765324945403931   Change is   -0.000000000000233
 Root      2 :     2.741410567006685   Change is   -0.000000000001409
 Root      3 :     3.051734972742834   Change is   -0.000000000000027
 Root      4 :     3.362784517114831   Change is   -0.000000000000122
 Root      5 :     3.820672280978491   Change is   -0.000000000000150
 Root      6 :     4.244793062340473   Change is   -0.000000306458268
 Iteration    14 Dimension   140 NMult   138 NNew      2
 CISAX will form     2 AO SS matrices at one time.
 NMat=     2 NSing=     2 JSym2X= 0.
 Root      1 has converged.
 Root      2 has converged.
 Root      3 has converged.
 Root      4 has converged.
 Root      5 has converged.
 Root      6 not converged, maximum delta is    0.000011535262319
 Excitation Energies [eV] at current iteration:
 Root      1 :     1.765324945403837   Change is   -0.000000000000093
 Root      2 :     2.741410567006656   Change is   -0.000000000000030
 Root      3 :     3.051734972742807   Change is   -0.000000000000027
 Root      4 :     3.362784517114856   Change is    0.000000000000024
 Root      5 :     3.820672280978340   Change is   -0.000000000000151
 Root      6 :     4.244793035620856   Change is   -0.000000026719617
 Iteration    15 Dimension   142 NMult   140 NNew      2
 CISAX will form     2 AO SS matrices at one time.
 NMat=     2 NSing=     2 JSym2X= 0.
 Root      1 has converged.
 Root      2 has converged.
 Root      3 has converged.
 Root      4 has converged.
 Root      5 has converged.
 Root      6 not converged, maximum delta is    0.000002663970088
 Excitation Energies [eV] at current iteration:
 Root      1 :     1.765324945403791   Change is   -0.000000000000046
 Root      2 :     2.741410567006206   Change is   -0.000000000000450
 Root      3 :     3.051734972742753   Change is   -0.000000000000054
 Root      4 :     3.362784517114685   Change is   -0.000000000000171
 Root      5 :     3.820672280978254   Change is   -0.000000000000086
 Root      6 :     4.244793032880859   Change is   -0.000000002739997
 Iteration    16 Dimension   144 NMult   142 NNew      2
 CISAX will form     2 AO SS matrices at one time.
 NMat=     2 NSing=     2 JSym2X= 0.
 Root      1 has converged.
 Root      2 has converged.
 Root      3 has converged.
 Root      4 has converged.
 Root      5 has converged.
 Root      6 has converged.
 Excitation Energies [eV] at current iteration:
 Root      1 :     1.765324945403745   Change is   -0.000000000000046
 Root      2 :     2.741410567006056   Change is   -0.000000000000150
 Root      3 :     3.051734972742726   Change is   -0.000000000000027
 Root      4 :     3.362784517114636   Change is   -0.000000000000049
 Root      5 :     3.820672280978211   Change is   -0.000000000000043
 Root      6 :     4.244793032689381   Change is   -0.000000000191478
 Convergence achieved on expansion vectors.
 ***********************************************************************
 Excited states from <AA,BB:AA,BB> singles matrix:
 ***********************************************************************
 
 1PDM for each excited state written to RWF  633
 Ground to excited state transition densities written to RWF  633
 Ground to excited state transition electric dipole moments (Au):
       state          X           Y           Z        Dip. S.      Osc.
         1         3.4086     -0.0032     -0.0438     11.6206      0.5026
         2        -0.0003      2.6049     -0.1068      6.7969      0.4565
         3         1.2476     -0.0005     -0.0161      1.5567      0.1164
         4        -0.0002      1.9876     -0.1216      3.9655      0.3267
         5        -0.7089      0.0002      0.0098      0.5026      0.0470
         6         0.0031      0.1402      0.0625      0.0236      0.0025
 Ground to excited state transition velocity dipole moments (Au):
       state          X           Y           Z        Dip. S.      Osc.
         1        -0.2252      0.0002      0.0029      0.0507      0.5211
         2         0.0001     -0.2647      0.0122      0.0702      0.4645
         3        -0.1443      0.0001      0.0018      0.0208      0.1238
         4         0.0001     -0.2488      0.0183      0.0622      0.3358
         5         0.1072     -0.0000     -0.0015      0.0115      0.0546
         6        -0.0009     -0.0233     -0.0130      0.0007      0.0030
 Ground to excited state transition magnetic dipole moments (Au):
       state          X           Y           Z
         1        -0.0377     -0.2234     -2.8720
         2        -0.2096     -0.2691     -5.8773
         3        -0.0315      0.2601     -2.4924
         4        -0.4739     -0.4056     -5.5231
         5         0.0081      0.1070      0.5767
         6         0.3785      0.3073     -0.5902
 Ground to excited state transition velocity quadrupole moments (Au):
       state          XX          YY          ZZ          XY          XZ          YZ
[...]
 Alpha virt. eigenvalues --    1.18340   1.19863   1.23109   1.25727   1.26108
 Alpha virt. eigenvalues --    1.30290   1.30945   1.31210   1.32587   1.32875
 Alpha virt. eigenvalues --    1.33014   1.33798   1.34414   1.34525   1.35036
 Alpha virt. eigenvalues --    1.35987   1.37091   1.37236   1.37969   1.39357
 Alpha virt. eigenvalues --    1.40106   1.40133   1.41475   1.43061   1.43477
 Alpha virt. eigenvalues --    1.43511   1.45489   1.45505   1.46687   1.48692
 Alpha virt. eigenvalues --    1.49077   1.49870   1.50536   1.50606   1.51046
 Alpha virt. eigenvalues --    1.51803   1.51896   1.52671   1.52739   1.53254
 Alpha virt. eigenvalues --    1.53880   1.54622   1.54740   1.55583   1.55659
 Alpha virt. eigenvalues --    1.56307   1.56695   1.57384   1.58680   1.59708
 Alpha virt. eigenvalues --    1.59747   1.60887   1.61680   1.62151   1.63485
 Alpha virt. eigenvalues --    1.63899   1.63946   1.64510   1.64624   1.64690
 Alpha virt. eigenvalues --    1.64730   1.65057   1.65681   1.66113   1.66153
 Alpha virt. eigenvalues --    1.66543   1.66974   1.67346   1.67799   1.68215
 Alpha virt. eigenvalues --    1.69054   1.69640   1.69836   1.70243   1.70787
 Alpha virt. eigenvalues --    1.71041   1.71344   1.72082   1.72340   1.73839
 Alpha virt. eigenvalues --    1.74568   1.74850   1.75564   1.75986   1.76904
 Alpha virt. eigenvalues --    1.77053   1.77472   1.78088   1.78546   1.78956
 Alpha virt. eigenvalues --    1.79302   1.80319   1.80624   1.81049   1.81556
 Alpha virt. eigenvalues --    1.82149   1.83217   1.83893   1.83906   1.84727
 Alpha virt. eigenvalues --    1.84853   1.85102   1.86167   1.86353   1.87686
 Alpha virt. eigenvalues --    1.88127   1.88262   1.88632   1.88703   1.89084
 Alpha virt. eigenvalues --    1.89332   1.89493   1.90007   1.90435   1.90970
 Alpha virt. eigenvalues --    1.92405   1.93089   1.93339   1.93909   1.94177
 Alpha virt. eigenvalues --    1.95170   1.97059   1.97749   1.98323   1.98359
 Alpha virt. eigenvalues --    1.99939   2.00405   2.00410   2.01360   2.02685
 Alpha virt. eigenvalues --    2.02958   2.03442   2.03682   2.03703   2.04436
 Alpha virt. eigenvalues --    2.04753   2.06478   2.08035   2.09802   2.10631
 Alpha virt. eigenvalues --    2.11879   2.14155   2.14541   2.15138   2.16567
 Alpha virt. eigenvalues --    2.17007   2.17789   2.19442   2.21460   2.22986
 Alpha virt. eigenvalues --    2.23029   2.24432   2.24590   2.26626   2.30043
 Alpha virt. eigenvalues --    2.31036   2.31652   2.32071   2.32115   2.33766
 Alpha virt. eigenvalues --    2.35315   2.35463   2.38699   2.39589   2.40081
 Alpha virt. eigenvalues --    2.40135   2.40733   2.41262   2.43542   2.43779
 Alpha virt. eigenvalues --    2.44544   2.45822   2.46390   2.46744   2.46923
 Alpha virt. eigenvalues --    2.47755   2.48622   2.49640   2.49953   2.51334
 Alpha virt. eigenvalues --    2.52294   2.53528   2.55120   2.58336   2.63159
 Alpha virt. eigenvalues --    2.65353   2.66542   2.66852   2.68734   2.70218
 Alpha virt. eigenvalues --    2.71832   2.72111   2.72902   2.73543   2.73578
 Alpha virt. eigenvalues --    2.74185   2.77620   2.83115   2.83534   2.85271
 Alpha virt. eigenvalues --    2.88226   2.88890   2.89518   2.93456   2.93641
 Alpha virt. eigenvalues --    2.97129   2.98870   3.10024   3.11644   3.14899
 Alpha virt. eigenvalues --    3.15407   3.55986   3.59609   3.59678   3.68276
 Alpha virt. eigenvalues --    3.68468   3.71790   3.74424   3.76661   3.89092
 Alpha virt. eigenvalues --    4.04066   4.07379   4.11969   4.14241
          Condensed to atoms (all electrons):
 Mulliken charges:
               1
     1  N   -0.167864
     2  C    0.100263
     3  C   -0.038951
     4  C   -0.094077
     5  C    0.112604
     6  C   -0.017403
     7  C    0.013220
     8  C    0.031647
     9  C    0.013215
    10  C   -0.017435
    11  C    0.006181
    12  C    0.065124
    13  C    0.112693
    14  C   -0.094275
    15  C   -0.039011
    16  C    0.100186
    17  N   -0.167894
    18  F   -0.232213
    19  B    0.191494
    20  F   -0.228156
    21  H    0.056702
    22  H    0.035243
    23  H    0.029916
    24  H    0.032168
    25  H    0.036335
    26  H    0.032179
    27  H    0.030007
    28  H    0.035300
    29  H    0.056690
    30  C    0.017945
    31  C   -0.045432
    32  C   -0.047247
    33  C    0.009676
    34  C    0.009041
    35  C   -0.009923
    36  H    0.008878
    37  H    0.009374
    38  H    0.017268
    39  H    0.017660
    40  H    0.015840
    41  C    0.018094
    42  C   -0.047428
    43  C   -0.045545
    44  C    0.009107
    45  C    0.009708
    46  C   -0.009907
    47  H    0.009380
    48  H    0.008885
    49  H    0.017650
    50  H    0.017260
    51  H    0.015831
 Sum of Mulliken charges =  -0.00000
 Mulliken charges with hydrogens summed into heavy atoms:
               1
     1  N   -0.167864
     2  C    0.156965
     3  C   -0.038951
     4  C   -0.058834
     5  C    0.112604
     6  C    0.012513
     7  C    0.045388
     8  C    0.067982
     9  C    0.045393
    10  C    0.012572
    11  C    0.006181
    12  C    0.065124
    13  C    0.112693
    14  C   -0.058975
    15  C   -0.039011
    16  C    0.156876
    17  N   -0.167894
    18  F   -0.232213
    19  B    0.191494
    20  F   -0.228156
    30  C    0.017945
    31  C   -0.036554
    32  C   -0.037872
    33  C    0.026945
    34  C    0.026701
    35  C    0.005918
    41  C    0.018094
    42  C   -0.038049
    43  C   -0.036661
    44  C    0.026757
    45  C    0.026968
    46  C    0.005924
 Electronic spatial extent (au):  <R**2>=         178842.2179
 Charge=             -0.0000 electrons
 Dipole moment (field-independent basis, Debye):
    X=              0.0710    Y=              6.7030    Z=              4.4732  Tot=              8.0589
 Quadrupole moment (field-independent basis, Debye-Ang):
   XX=           -152.4976   YY=           -255.8402   ZZ=           -197.7099
   XY=             78.2796   XZ=             52.0129   YZ=            -32.6289
 Traceless Quadrupole moment (field-independent basis, Debye-Ang):
   XX=             49.5183   YY=            -53.8243   ZZ=              4.3060
   XY=             78.2796   XZ=             52.0129   YZ=            -32.6289
 Octapole moment (field-independent basis, Debye-Ang**2):
  XXX=          -5405.4241  YYY=           5119.2075  ZZZ=           -205.9079  XYY=          -3003.6883
  XXY=           2159.6369  XXZ=            623.6977  XZZ=          -2326.9510  YZZ=           1655.7893
  YYZ=            177.5779  XYZ=           -378.6307
 Hexadecapole moment (field-independent basis, Debye-Ang**3):
 XXXX=        -142366.1880 YYYY=         -84056.7177 ZZZZ=          -1676.0797 XXXY=          54592.8302
 XXXZ=           7778.3839 YYYX=          60154.4528 YYYZ=           -149.3239 ZZZX=          -2327.9933
 ZZZY=           1761.8098 XXYY=         -48519.7591 XXZZ=         -30373.3856 YYZZ=         -15169.6452
 XXYZ=          -4471.3428 YYXZ=           2069.9463 ZZXY=          19487.2270
 N-N= 2.852822642855D+03 E-N=-8.905855337608D+03  KE= 1.365494497606D+03

 **********************************************************************

            Population analysis using the CI Rho(1) Density.

 **********************************************************************

          Condensed to atoms (all electrons):
 Mulliken charges:
               1
     1  N   -0.155081
     2  C    0.120995
     3  C    0.047147
     4  C   -0.168912
     5  C    0.230070
     6  C   -0.072221
     7  C    0.011573
     8  C   -0.026570
     9  C    0.011568
    10  C   -0.072220
    11  C   -0.002311
    12  C   -0.229022
    13  C    0.230381
    14  C   -0.169060
    15  C    0.047251
    16  C    0.121162
    17  N   -0.155069
    18  F   -0.232598
    19  B    0.187685
    20  F   -0.227976
    21  H    0.056486
    22  H    0.034358
    23  H    0.027720
    24  H    0.032141
    25  H    0.035835
    26  H    0.032151
    27  H    0.027818
    28  H    0.034421
    29  H    0.056474
    30  C    0.030872
    31  C   -0.027586
    32  C   -0.026340
    33  C    0.012169
    34  C    0.009827
    35  C    0.014825
    36  H    0.008784
    37  H    0.009335
    38  H    0.017266
    39  H    0.017657
    40  H    0.015972
    41  C    0.031072
    42  C   -0.026448
    43  C   -0.027639
    44  C    0.009888
    45  C    0.012209
    46  C    0.014934
    47  H    0.009347
    48  H    0.008795
    49  H    0.017646
    50  H    0.017258
    51  H    0.015963
 Sum of Mulliken charges =  -0.00000
 Mulliken charges with hydrogens summed into heavy atoms:
               1
     1  N   -0.155081
     2  C    0.177481
     3  C    0.047147
     4  C   -0.134554
     5  C    0.230070
     6  C   -0.044500
     7  C    0.043714
     8  C    0.009265
     9  C    0.043719
    10  C   -0.044402
    11  C   -0.002311
    12  C   -0.229022
    13  C    0.230381
    14  C   -0.134640
    15  C    0.047251
    16  C    0.177636
    17  N   -0.155069
    18  F   -0.232598
    19  B    0.187685
    20  F   -0.227976
    30  C    0.030872
    31  C   -0.018802
    32  C   -0.017004
    33  C    0.029435
    34  C    0.027484
    35  C    0.030797
    41  C    0.031072
    42  C   -0.017101
    43  C   -0.018844
    44  C    0.027533
    45  C    0.029466
    46  C    0.030897
 Electronic spatial extent (au):  <R**2>=         178740.9221
 Charge=              0.0000 electrons
 Dipole moment (field-independent basis, Debye):
    X=              0.0538    Y=             -0.3966    Z=              5.0570  Tot=              5.0728
 Quadrupole moment (field-independent basis, Debye-Ang):
   XX=           -120.0056   YY=           -153.0421   ZZ=           -196.7536
   XY=             -5.0909   XZ=             58.4551   YZ=            -40.0852
 Traceless Quadrupole moment (field-independent basis, Debye-Ang):
   XX=             36.5949   YY=              3.5583   ZZ=            -40.1532
   XY=             -5.0909   XZ=             58.4551   YZ=            -40.0852
 Octapole moment (field-independent basis, Debye-Ang**2):
  XXX=          -4251.8052  YYY=           3944.7876  ZZZ=           -202.6952  XYY=          -1795.5353
  XXY=            858.0319  XXZ=            731.8206  XZZ=          -2316.6554  YZZ=           1641.4774
  YYZ=            260.7809  XYZ=           -462.2603
 Hexadecapole moment (field-independent basis, Debye-Ang**3):
 XXXX=        -114007.4888 YYYY=         -71680.2664 ZZZZ=          -1668.7679 XXXY=          31712.2570
 XXXZ=           9856.2314 YYYX=          46346.4644 YYYZ=          -1035.2210 ZZZX=          -2293.0853
 ZZZY=           1727.2883 XXYY=         -31172.2737 XXZZ=         -30187.6643 YYZZ=         -15004.6939
 XXYZ=          -5774.4836 YYXZ=           3009.4745 ZZXY=          19328.1517
 N-N= 2.852822642855D+03 E-N=-8.905989463371D+03  KE= 1.365532774449D+03

 **********************************************************************

            Population analysis using the CI Density.

 **********************************************************************

          Condensed to atoms (all electrons):
 Mulliken charges:
               1
     1  N   -0.166016
     2  C    0.110014
     3  C   -0.019479
     4  C   -0.108003
     5  C    0.136547
     6  C   -0.048780
     7  C    0.008817
     8  C   -0.001307
     9  C    0.008817
    10  C   -0.048769
    11  C    0.022283
    12  C    0.000553
    13  C    0.136713
    14  C   -0.108154
    15  C   -0.019519
    16  C    0.110074
    17  N   -0.166045
    18  F   -0.231069
    19  B    0.192084
    20  F   -0.226511
    21  H    0.059800
    22  H    0.029550
    23  H    0.011903
    24  H    0.020081
    25  H    0.019526
    26  H    0.020092
    27  H    0.011997
    28  H    0.029648
    29  H    0.059835
    30  C    0.013769
    31  C   -0.032335
    32  C   -0.033327
    33  C    0.012456
    34  C    0.010815
    35  C    0.003782
    36  H    0.016374
    37  H    0.016564
    38  H    0.022870
    39  H    0.023042
    40  H    0.023516
    41  C    0.013925
    42  C   -0.033463
    43  C   -0.032400
    44  C    0.010891
    45  C    0.012500
    46  C    0.003858
    47  H    0.016604
    48  H    0.016410
    49  H    0.023050
    50  H    0.022882
    51  H    0.023536
 Sum of Mulliken charges =  -0.00000
 Mulliken charges with hydrogens summed into heavy atoms:
               1
     1  N   -0.166016
     2  C    0.169815
     3  C   -0.019479
     4  C   -0.078453
     5  C    0.136547
     6  C   -0.036877
     7  C    0.028898
     8  C    0.018219
     9  C    0.028909
    10  C   -0.036772
    11  C    0.022283
    12  C    0.000553
    13  C    0.136713
    14  C   -0.078506
    15  C   -0.019519
    16  C    0.169909
    17  N   -0.166045
    18  F   -0.231069
    19  B    0.192084
    20  F   -0.226511
    30  C    0.013769
    31  C   -0.015961
    32  C   -0.016763
    33  C    0.035326
    34  C    0.033857
    35  C    0.027299
    41  C    0.013925
    42  C   -0.016859
    43  C   -0.015990
    44  C    0.033941
    45  C    0.035382
    46  C    0.027394
 Electronic spatial extent (au):  <R**2>=         178764.5493
 Charge=              0.0000 electrons
 Dipole moment (field-independent basis, Debye):
    X=              0.0594    Y=              1.3431    Z=              5.1510  Tot=              5.3236
 Quadrupole moment (field-independent basis, Debye-Ang):
   XX=           -124.1366   YY=           -181.2552   ZZ=           -196.1889
   XY=             15.3225   XZ=             59.6207   YZ=            -40.2779
 Traceless Quadrupole moment (field-independent basis, Debye-Ang):
   XX=             43.0570   YY=            -14.0616   ZZ=            -28.9954
   XY=             15.3225   XZ=             59.6207   YZ=            -40.2779
 Octapole moment (field-independent basis, Debye-Ang**2):
  XXX=          -4399.6114  YYY=           4272.0504  ZZZ=           -201.1554  XYY=          -2126.9797
  XXY=           1131.6940  XXZ=            752.4035  XZZ=          -2310.1784  YZZ=           1636.4251
  YYZ=            257.3043  XYZ=           -465.0333
 Hexadecapole moment (field-independent basis, Debye-Ang**3):
 XXXX=        -117316.8421 YYYY=         -74964.1100 ZZZZ=          -1661.7123 XXXY=          35725.0533
 XXXZ=          10250.1211 YYYX=          50192.6875 YYYZ=           -968.9514 ZZZX=          -2275.9966
 ZZZY=           1714.2829 XXYY=         -35321.8373 XXZZ=         -30086.6921 YYZZ=         -14961.6044
 XXYZ=          -5863.2315 YYXZ=           2972.6621 ZZXY=          19270.0281
 N-N= 2.852822642855D+03 E-N=-8.906021956702D+03  KE= 1.365563405082D+03
 No NMR shielding tensors so no spin-rotation constants.
 Leave Link  601 at Wed Feb  2 06:28:11 2022, MaxMem= 49660559360 cpu:              17.9 elap:               0.7
 (Enter /lustre1/prg/gaussian/bin/G16_C01_Linda_AVX2/g16/l9999.exe)
 Electronic transition elements 
                 1             2             3             4             5 
      1  -0.137408D+04 -0.137405D+04 -0.137404D+04 -0.137402D+04 -0.137401D+04
      2   0.347815D+01  0.140376D-02  0.121902D+01 -0.716143D-03 -0.717659D+00
      3  -0.312567D-02  0.258280D+01 -0.209167D-02  0.196059D+01 -0.457771D-03
      4  -0.444819D-01 -0.983606D-01 -0.154994D-01 -0.119641D+00  0.103713D-01
      5  -0.232736D+00 -0.113112D-03 -0.142517D+00  0.129833D-03  0.108552D+00
      6   0.205635D-03 -0.265508D+00  0.242648D-03 -0.246847D+00  0.559302D-04
      7   0.299803D-02  0.116037D-01  0.178509D-02  0.180273D-01 -0.156364D-02
      8  -0.392961D-01 -0.188194D+00 -0.311768D-01 -0.446101D+00  0.895601D-02
      9  -0.229284D+00 -0.256531D+00  0.248196D+00 -0.400639D+00  0.108109D+00
     10  -0.299755D+01 -0.589907D+01 -0.249373D+01 -0.547917D+01  0.617826D+00
     11  -0.103447D+02  0.203919D+01 -0.633254D+01  0.613804D+00  0.482366D+01
     12  -0.824473D-02  0.695535D+01 -0.804222D-02  0.572891D+01 -0.135781D-02
     13   0.913443D-02  0.141247D+00  0.131358D-02  0.397841D-01 -0.928951D-03
     14   0.416098D+01 -0.590082D+01  0.232317D+01 -0.548822D+01 -0.113656D+01
     15  -0.278477D+00  0.233247D+00 -0.167724D-01  0.393689D+00 -0.192460D-02
     16  -0.530398D-01 -0.293906D+00 -0.288513D-01 -0.333590D+00  0.162164D-01
                 6 
      1  -0.137399D+04
      2   0.323673D-02
      3   0.146078D+00
      4   0.650595D-01
      5  -0.102406D-02
      6  -0.243064D-01
      7  -0.133572D-01
      8   0.380224D+00
      9   0.318163D+00
     10  -0.620014D+00
     11   0.133994D+00
     12   0.110464D+01
     13  -0.421040D-01
     14  -0.575983D+00
     15  -0.312431D+00
     16   0.162999D+00
 Unable to Open any file for archive entry.
 1\1\VILNIUS-FIZIKA341\FOpt\RM062X TD-FC\CC-pVDZ\C27H19B1F2N2\TOLISTE\0
 2-Feb-2022\0\\#p m062x cc-pvdz scrf=(cpcm,solvent=Acetone) td=(nstate=
 6,root=1) opt=tight nosymm density=all int=ultrafine fchk\\BDP-PP-phen
 yl, optimized R1 in toluene\\0,1\N,12.9479404831,-9.2065824491,-0.6348
 489263\C,14.1059319086,-9.8171808548,-0.4088117158\C,14.9419555865,-8.
 9810842915,0.3872927907\C,14.1969871918,-7.8116704262,0.6372977645\C,1
 2.9564966117,-7.945692138,-0.0054835782\C,10.5520217105,-4.9561370061,
 0.1314714584\C,10.5591205428,-3.569453453,0.218122705\C,11.7636249421,
 -2.8646641495,0.2626514819\C,12.964423004,-3.5727726087,0.1830221366\C
 ,12.9651924518,-4.9594649974,0.0963222493\C,11.7574076698,-5.698069880
 5,0.1032047874\C,11.754071035,-7.1473543619,0.0043327599\C,10.54979313
 06,-7.9427692364,0.0257318102\C,9.3265962012,-7.806252828,0.7003667909
 \C,8.5724325358,-8.9735817875,0.4686992329\C,9.385605486,-9.8110731691
 ,-0.3493619902\N,10.5389545017,-9.2032922473,-0.6045161067\F,11.730012
 4734,-11.1139644251,-1.480297109\B,11.7324613186,-9.7268968753,-1.4375
 638925\F,11.7171092375,-9.1732734589,-2.7175520843\H,14.2986113823,-10
 .8017994303,-0.8277765569\H,14.4874972198,-6.9851964421,1.2764903737\H
 ,9.5957299983,-5.466657502,0.0495429539\H,9.6100761988,-3.0326823084,0
 .2387533088\H,11.7661437431,-1.7768788969,0.3331218688\H,13.915118136,
 -3.0385879141,0.1757165792\H,13.9173092737,-5.472665922,-0.0133333441\
 H,9.0545272174,-6.9795178322,1.3472254019\H,9.1800395282,-10.795056336
 ,-0.7636937711\C,16.292987982,-9.298995596,0.830238112\C,17.0735944022
 ,-8.3345854802,1.4964165903\C,16.849088803,-10.5743689288,0.6088257948
 \C,18.3600490483,-8.6365466846,1.9276710183\C,18.1361421798,-10.872406
 8178,1.0412211751\C,18.8980849002,-9.9063407012,1.7029460784\H,16.6698
 916734,-7.336569983,1.6692472849\H,16.2657634437,-11.3430034764,0.1010
 97013\H,18.9496862491,-7.8761414646,2.4405323843\H,18.5482381403,-11.8
 659537153,0.8627393967\H,19.9075732509,-10.1417009639,2.041172267\C,7.
 2325629491,-9.2888409131,0.9460521333\C,6.6652305241,-10.5603556531,0.
 7310112269\C,6.4742436135,-8.3259186111,1.6396582857\C,5.3888140605,-1
 0.8560360873,1.1953550187\C,5.1983952269,-8.6255266863,2.102889439\C,4
 .6489195159,-9.8913776191,1.8837051775\H,7.2313559383,-11.327841953,0.
 2025016713\H,6.8868314501,-7.3309782915,1.8091726699\H,4.9677552635,-1
 1.846549485,1.0210185744\H,4.6260089919,-7.8662944051,2.6366413058\H,3
 .6477076735,-10.1247812554,2.2469600037\\Version=ES64L-G16RevC.01\HF=-
 1374.149189\RMSD=3.133e-09\RMSF=4.788e-07\Dipole=0.023383,0.5284226,2.
 0265593\Quadrupole=32.0118251,-10.4544764,-21.5573487,11.3919067,44.32
 64955,-29.9455983\PG=C01 [X(C27H19B1F2N2)]\\@
 The archive entry for this job was punched.


      LET US REMEMBER, PLEASE, THAT THE SEARCH FOR THE CONSTITUTION
      OF THE WORLD IS ONE OF THE GREATEST AND NOBLEST PROBLEMS PRESENTED 
      BY NATURE.

                                                  -- GALILEO
 Job cpu time:       0 days  0 hours 17 minutes 58.2 seconds.
 Elapsed time:       0 days  5 hours 39 minutes 28.6 seconds.
 File lengths (MBytes):  RWF=   1886 Int=      0 D2E=      0 Chk=     92 Scr=      1
 Normal termination of Gaussian 16 at Wed Feb  2 06:28:13 2022.
