 Entering Gaussian System, Link 0=/lustre1/prg/gaussian/bin/G16_C01_Linda_AVX/g16/g16
 Initial command:
 /lustre1/prg/gaussian/bin/G16_C01_Linda_AVX/g16/l1.exe "/lustre1/prg/webmo/data/webmo20/toliste/4370/scratch/Gau-30096.inp" -scrdir="/lustre1/prg/webmo/data/webmo20/toliste/4370/scratch/"
 Default is to use a total of  16 processors:
                               16 via shared-memory
                                1 via Linda
 Entering Link 1 = /lustre1/prg/gaussian/bin/G16_C01_Linda_AVX/g16/l1.exe PID=     30097.
  
 Copyright (c) 1988-2019, Gaussian, Inc.  All Rights Reserved.
  
 This is part of the Gaussian(R) 16 program.  It is based on
 the Gaussian(R) 09 system (copyright 2009, Gaussian, Inc.),
 the Gaussian(R) 03 system (copyright 2003, Gaussian, Inc.),
 the Gaussian(R) 98 system (copyright 1998, Gaussian, Inc.),
 the Gaussian(R) 94 system (copyright 1995, Gaussian, Inc.),
 the Gaussian 92(TM) system (copyright 1992, Gaussian, Inc.),
 the Gaussian 90(TM) system (copyright 1990, Gaussian, Inc.),
 the Gaussian 88(TM) system (copyright 1988, Gaussian, Inc.),
 the Gaussian 86(TM) system (copyright 1986, Carnegie Mellon
 University), and the Gaussian 82(TM) system (copyright 1983,
 Carnegie Mellon University). Gaussian is a federally registered
 trademark of Gaussian, Inc.
  
 This software contains proprietary and confidential information,
 including trade secrets, belonging to Gaussian, Inc.
  
 This software is provided under written license and may be
 used, copied, transmitted, or stored only in accord with that
 written license.
  
 The following legend is applicable only to US Government
 contracts under FAR:
  
                    RESTRICTED RIGHTS LEGEND
  
 Use, reproduction and disclosure by the US Government is
 subject to restrictions as set forth in subparagraphs (a)
 and (c) of the Commercial Computer Software - Restricted
 Rights clause in FAR 52.227-19.
  
 Gaussian, Inc.
 340 Quinnipiac St., Bldg. 40, Wallingford CT 06492
  
  
 ---------------------------------------------------------------
 Warning -- This program may not be used in any manner that
 competes with the business of Gaussian, Inc. or will provide
 assistance to any competitor of Gaussian, Inc.  The licensee
 of this program is prohibited from giving any competitor of
 Gaussian, Inc. access to this program.  By using this program,
 the user acknowledges that Gaussian, Inc. is engaged in the
 business of creating and licensing software in the field of
 computational chemistry and represents and warrants to the
 licensee that it is not a competitor of Gaussian, Inc. and that
 it will not use this program in any manner prohibited above.
 ---------------------------------------------------------------
  

 Cite this work as:
 Gaussian 16, Revision C.01,
 M. J. Frisch, G. W. Trucks, H. B. Schlegel, G. E. Scuseria, 
 M. A. Robb, J. R. Cheeseman, G. Scalmani, V. Barone, 
 G. A. Petersson, H. Nakatsuji, X. Li, M. Caricato, A. V. Marenich, 
 J. Bloino, B. G. Janesko, R. Gomperts, B. Mennucci, H. P. Hratchian, 
 J. V. Ortiz, A. F. Izmaylov, J. L. Sonnenberg, D. Williams-Young, 
 F. Ding, F. Lipparini, F. Egidi, J. Goings, B. Peng, A. Petrone, 
 T. Henderson, D. Ranasinghe, V. G. Zakrzewski, J. Gao, N. Rega, 
 G. Zheng, W. Liang, M. Hada, M. Ehara, K. Toyota, R. Fukuda, 
 J. Hasegawa, M. Ishida, T. Nakajima, Y. Honda, O. Kitao, H. Nakai, 
 T. Vreven, K. Throssell, J. A. Montgomery, Jr., J. E. Peralta, 
 F. Ogliaro, M. J. Bearpark, J. J. Heyd, E. N. Brothers, K. N. Kudin, 
 V. N. Staroverov, T. A. Keith, R. Kobayashi, J. Normand, 
 K. Raghavachari, A. P. Rendell, J. C. Burant, S. S. Iyengar, 
 J. Tomasi, M. Cossi, J. M. Millam, M. Klene, C. Adamo, R. Cammi, 
 J. W. Ochterski, R. L. Martin, K. Morokuma, O. Farkas, 
 J. B. Foresman, and D. J. Fox, Gaussian, Inc., Wallingford CT, 2019.
 
 ******************************************
 Gaussian 16:  ES64L-G16RevC.01  3-Jul-2019
                31-Jan-2022 
 ******************************************
 %LindaWorkers=fizika114,fizika115,fizika116,fizika117,fizika118,fizika119,fizika
 120,fizika121
 %chk=bodipy.chk
 SetLPE:  input flags=" -opt "Tsnet.Node.lindarsharg: ssh" "
 SetLPE:    new flags=" -opt "Tsnet.Node.lindarsharg: ssh" -opt 'Tsnet.Node.lindarsharg: ssh'  -nodelist 'fizika114.fizika.bullx fizika115.fizika.bullx fizika116.fizika.bullx fizika117.fizika.bullx fizika118.fizika.bullx fizika119.fizika.bullx fizika120.fizika.bullx fizika121.fizika.bullx' -env GAUSS_MDEF=14763950080 -env GAUSS_EXEDIR="/lustre1/prg/gaussian/bin/G16_C01_Linda_AVX/g16/bsd:/lustre1/prg/gaussian/bin/G16_C01_Linda_AVX/g16/private:/lustre1/prg/gaussian/bin/G16_C01_Linda_AVX/g16""
 Will use up to    8 processors via Linda.
 ----------------------------------------------------------------------
 #p m062x cc-pvdz scrf=(cpcm,solvent=DiMethylSulfoxide) td=(nstate=6,ro
 ot=1) opt=tight nosymm density=all int=ultrafine fchk
 ----------------------------------------------------------------------
 1/7=10,18=20,19=15,26=6,38=1/1,3;
 2/9=110,12=2,15=1,17=6,18=5,40=1/2;
 3/5=16,11=9,25=1,30=1,70=2101,71=1,72=21,74=-55,75=-5/1,2,3,8;
 4//1;
 5/5=2,38=5,53=21/2;
 8/6=1,10=1,107=1,108=6/1;
 9/8=1,15=2,30=10,41=6,42=1,70=2/14;
 10/5=4,28=1,31=1/2;
 6/7=2,8=2,9=2,10=2,22=-2/1;
 7/12=6,13=5,14=1,30=1/1,2,3,16;
 1/7=10,18=20,19=15,26=6/3(2);
 2/9=110,15=1/2;
 99//99;
 2/9=110,15=1/2;
 3/5=16,11=9,25=1,30=1,70=2105,71=1,72=21,74=-55,75=-5/1,2,3,8;
 4/5=5,16=3,69=1/1;
 5/5=2,38=5,53=21/2;
 8/6=1,10=1,107=1,108=6/1;
 9/8=1,15=2,30=10,41=6,42=1,49=4,70=2/14;
 10/5=4,28=1,31=1/2;
 7/12=6,13=5,14=1,30=1/1,2,3,16;
 1/7=10,18=20,19=15,26=6/3(-8);
 2/9=110,15=1/2;
 6/7=2,8=2,9=2,10=2,22=-2/1;
 99/9=10/99;
 Leave Link    1 at Mon Jan 31 14:39:00 2022, MaxMem=           0 cpu:               1.9 elap:               0.1
 (Enter /lustre1/prg/gaussian/bin/G16_C01_Linda_AVX/g16/l101.exe)
 --------------------------------------
 BDP-PP-phenyl, optimized S1 in toluene
 --------------------------------------
 Symbolic Z-matrix:
 Charge =  0 Multiplicity = 1
 N                     12.62367  -9.4506   -0.98875 
 C                     13.63767  -9.87487  -1.73835 
 C                     14.37617  -8.7627   -2.23263 
 C                     13.73264  -7.61155  -1.72688 
 C                     12.65731  -8.0399   -0.93462 
 C                     10.50976  -5.14439  -0.15971 
 C                     10.49579  -3.75399  -0.09963 
 C                     11.68762  -3.04389   0.05368 
 C                     12.89423  -3.73787   0.15058 
 C                     12.91292  -5.12869   0.0884 
 C                     11.72023  -5.856    -0.07284 
 C                     11.72103  -7.32481  -0.13704 
 C                     10.82157  -8.07464   0.67324 
 C                     9.97659  -7.67593   1.71821 
 C                     9.41416  -8.84334   2.28069 
 C                     9.94715  -9.93433   1.53585 
 N                     10.76389  -9.48104   0.58897 
 F                     11.94401  -11.52245   0.05941 
 B                     11.45987  -10.3404  -0.49036 
 F                     10.58086  -10.61516  -1.53887 
 H                     13.77189  -10.93767  -1.92473 
 H                     14.01281  -6.57782  -1.89604 
 H                     9.57792  -5.6946   -0.30006 
 H                     9.54788  -3.2208   -0.18178 
 H                     11.67562  -1.95458   0.10049 
 H                     13.82909  -3.19282   0.28674 
 H                     13.85632  -5.66434   0.20065 
 H                     9.84781  -6.65296   2.05644 
 H                     9.76341  -11.00134   1.63475 
 C                     15.54078  -8.83366  -3.09953 
 C                     16.09101  -7.6634   -3.6595 
 C                     16.15015  -10.06883  -3.40061 
 C                     17.20509  -7.7274   -4.48704 
 C                     17.26394  -10.12857  -4.22829 
 C                     17.7977  -8.95913  -4.77608 
 H                     15.63186  -6.69733  -3.44861 
 H                     15.75246  -10.9895  -2.97287 
 H                     17.6149  -6.81107  -4.91293 
 H                     17.72235  -11.09334  -4.44714 
 H                     18.67216  -9.00774  -5.42561 
 C                     8.48348  -8.94761   3.39182 
 C                     7.91628  -7.79086   3.96317 
 C                     8.12583  -10.20192   3.92744 
 C                     7.02798  -7.88625   5.027 
 C                     7.23719  -10.29295   4.99082 
 C                     6.68349  -9.13653   5.54668 
 H                     8.17032  -6.81053   3.55937 
 H                     8.55655  -11.11305   3.51144 
 H                     6.59767  -6.9801    5.45443 
 H                     6.97476  -11.27204   5.39242 
 H                     5.98586  -9.20981   6.38145 
 
 ITRead=  0  0  0  0  0  0  0  0  0  0  0  0  0  0  0  0  0  0  0  0
 ITRead=  0  0  0  0  0  0  0  0  0  0  0  0  0  0  0  0  0  0  0  0
 ITRead=  0  0  0  0  0  0  0  0  0  0  0
 MicOpt= -1 -1 -1 -1 -1 -1 -1 -1 -1 -1 -1 -1 -1 -1 -1 -1 -1 -1 -1 -1
 MicOpt= -1 -1 -1 -1 -1 -1 -1 -1 -1 -1 -1 -1 -1 -1 -1 -1 -1 -1 -1 -1
 MicOpt= -1 -1 -1 -1 -1 -1 -1 -1 -1 -1 -1
 NAtoms=     51 NQM=       51 NQMF=       0 NMMI=      0 NMMIF=      0
                NMic=       0 NMicF=      0.
                    Isotopes and Nuclear Properties:
 (Nuclear quadrupole moments (NQMom) in fm**2, nuclear magnetic moments (NMagM)
  in nuclear magnetons)

  Atom         1           2           3           4           5           6           7           8           9          10
 IAtWgt=          14          12          12          12          12          12          12          12          12          12
 AtmWgt=  14.0030740  12.0000000  12.0000000  12.0000000  12.0000000  12.0000000  12.0000000  12.0000000  12.0000000  12.0000000
 NucSpn=           2           0           0           0           0           0           0           0           0           0
 AtZEff=  -0.0000000  -0.0000000  -0.0000000  -0.0000000  -0.0000000  -0.0000000  -0.0000000  -0.0000000  -0.0000000  -0.0000000
 NQMom=    2.0440000   0.0000000   0.0000000   0.0000000   0.0000000   0.0000000   0.0000000   0.0000000   0.0000000   0.0000000
 NMagM=    0.4037610   0.0000000   0.0000000   0.0000000   0.0000000   0.0000000   0.0000000   0.0000000   0.0000000   0.0000000
 AtZNuc=   7.0000000   6.0000000   6.0000000   6.0000000   6.0000000   6.0000000   6.0000000   6.0000000   6.0000000   6.0000000

  Atom        11          12          13          14          15          16          17          18          19          20
 IAtWgt=          12          12          12          12          12          12          14          19          11          19
 AtmWgt=  12.0000000  12.0000000  12.0000000  12.0000000  12.0000000  12.0000000  14.0030740  18.9984032  11.0093053  18.9984032
 NucSpn=           0           0           0           0           0           0           2           1           3           1
 AtZEff=  -0.0000000  -0.0000000  -0.0000000  -0.0000000  -0.0000000  -0.0000000  -0.0000000  -0.0000000  -0.0000000  -0.0000000
 NQMom=    0.0000000   0.0000000   0.0000000   0.0000000   0.0000000   0.0000000   2.0440000   0.0000000   4.0590000   0.0000000
 NMagM=    0.0000000   0.0000000   0.0000000   0.0000000   0.0000000   0.0000000   0.4037610   2.6288670   2.6886370   2.6288670
 AtZNuc=   6.0000000   6.0000000   6.0000000   6.0000000   6.0000000   6.0000000   7.0000000   9.0000000   5.0000000   9.0000000

  Atom        21          22          23          24          25          26          27          28          29          30
 IAtWgt=           1           1           1           1           1           1           1           1           1          12
 AtmWgt=   1.0078250   1.0078250   1.0078250   1.0078250   1.0078250   1.0078250   1.0078250   1.0078250   1.0078250  12.0000000
 NucSpn=           1           1           1           1           1           1           1           1           1           0
 AtZEff=  -0.0000000  -0.0000000  -0.0000000  -0.0000000  -0.0000000  -0.0000000  -0.0000000  -0.0000000  -0.0000000  -0.0000000
 NQMom=    0.0000000   0.0000000   0.0000000   0.0000000   0.0000000   0.0000000   0.0000000   0.0000000   0.0000000   0.0000000
 NMagM=    2.7928460   2.7928460   2.7928460   2.7928460   2.7928460   2.7928460   2.7928460   2.7928460   2.7928460   0.0000000
 AtZNuc=   1.0000000   1.0000000   1.0000000   1.0000000   1.0000000   1.0000000   1.0000000   1.0000000   1.0000000   6.0000000

  Atom        31          32          33          34          35          36          37          38          39          40
 IAtWgt=          12          12          12          12          12           1           1           1           1           1
 AtmWgt=  12.0000000  12.0000000  12.0000000  12.0000000  12.0000000   1.0078250   1.0078250   1.0078250   1.0078250   1.0078250
 NucSpn=           0           0           0           0           0           1           1           1           1           1
 AtZEff=  -0.0000000  -0.0000000  -0.0000000  -0.0000000  -0.0000000  -0.0000000  -0.0000000  -0.0000000  -0.0000000  -0.0000000
 NQMom=    0.0000000   0.0000000   0.0000000   0.0000000   0.0000000   0.0000000   0.0000000   0.0000000   0.0000000   0.0000000
 NMagM=    0.0000000   0.0000000   0.0000000   0.0000000   0.0000000   2.7928460   2.7928460   2.7928460   2.7928460   2.7928460
 AtZNuc=   6.0000000   6.0000000   6.0000000   6.0000000   6.0000000   1.0000000   1.0000000   1.0000000   1.0000000   1.0000000

  Atom        41          42          43          44          45          46          47          48          49          50
 IAtWgt=          12          12          12          12          12          12           1           1           1           1
 AtmWgt=  12.0000000  12.0000000  12.0000000  12.0000000  12.0000000  12.0000000   1.0078250   1.0078250   1.0078250   1.0078250
 NucSpn=           0           0           0           0           0           0           1           1           1           1
 AtZEff=  -0.0000000  -0.0000000  -0.0000000  -0.0000000  -0.0000000  -0.0000000  -0.0000000  -0.0000000  -0.0000000  -0.0000000
 NQMom=    0.0000000   0.0000000   0.0000000   0.0000000   0.0000000   0.0000000   0.0000000   0.0000000   0.0000000   0.0000000
 NMagM=    0.0000000   0.0000000   0.0000000   0.0000000   0.0000000   0.0000000   2.7928460   2.7928460   2.7928460   2.7928460
 AtZNuc=   6.0000000   6.0000000   6.0000000   6.0000000   6.0000000   6.0000000   1.0000000   1.0000000   1.0000000   1.0000000

  Atom        51
 IAtWgt=           1
 AtmWgt=   1.0078250
 NucSpn=           1
 AtZEff=  -0.0000000
 NQMom=    0.0000000
 NMagM=    2.7928460
 AtZNuc=   1.0000000
 Leave Link  101 at Mon Jan 31 14:39:01 2022, MaxMem= 14763950080 cpu:              11.6 elap:               0.7
 (Enter /lustre1/prg/gaussian/bin/G16_C01_Linda_AVX/g16/l103.exe)

 GradGradGradGradGradGradGradGradGradGradGradGradGradGradGradGradGradGrad
 Berny optimization.
 Initialization pass.
                           ----------------------------
                           !    Initial Parameters    !
                           ! (Angstroms and Degrees)  !
 --------------------------                            --------------------------
 ! Name  Definition              Value          Derivative Info.                !
 --------------------------------------------------------------------------------
 ! R1    R(1,2)                  1.3305         estimate D2E/DX2                !
 ! R2    R(1,5)                  1.4121         estimate D2E/DX2                !
 ! R3    R(1,19)                 1.5474         estimate D2E/DX2                !
 ! R4    R(2,3)                  1.4236         estimate D2E/DX2                !
 ! R5    R(2,21)                 1.0873         estimate D2E/DX2                !
 ! R6    R(3,4)                  1.4125         estimate D2E/DX2                !
 ! R7    R(3,30)                 1.4536         estimate D2E/DX2                !
 ! R8    R(4,5)                  1.4027         estimate D2E/DX2                !
 ! R9    R(4,22)                 1.0843         estimate D2E/DX2                !
 ! R10   R(5,12)                 1.4227         estimate D2E/DX2                !
 ! R11   R(6,7)                  1.3918         estimate D2E/DX2                !
 ! R12   R(6,11)                 1.4068         estimate D2E/DX2                !
 ! R13   R(6,23)                 1.0912         estimate D2E/DX2                !
 ! R14   R(7,8)                  1.3958         estimate D2E/DX2                !
 ! R15   R(7,24)                 1.0907         estimate D2E/DX2                !
 ! R16   R(8,9)                  1.3953         estimate D2E/DX2                !
 ! R17   R(8,25)                 1.0904         estimate D2E/DX2                !
 ! R18   R(9,10)                 1.3923         estimate D2E/DX2                !
 ! R19   R(9,26)                 1.0907         estimate D2E/DX2                !
 ! R20   R(10,11)                1.4062         estimate D2E/DX2                !
 ! R21   R(10,27)                1.0907         estimate D2E/DX2                !
 ! R22   R(11,12)                1.4702         estimate D2E/DX2                !
 ! R23   R(12,13)                1.424          estimate D2E/DX2                !
 ! R24   R(13,14)                1.4018         estimate D2E/DX2                !
 ! R25   R(13,17)                1.4101         estimate D2E/DX2                !
 ! R26   R(14,15)                1.4126         estimate D2E/DX2                !
 ! R27   R(14,28)                1.0851         estimate D2E/DX2                !
 ! R28   R(15,16)                1.4245         estimate D2E/DX2                !
 ! R29   R(15,41)                1.4532         estimate D2E/DX2                !
 ! R30   R(16,17)                1.3301         estimate D2E/DX2                !
 ! R31   R(16,29)                1.0872         estimate D2E/DX2                !
 ! R32   R(17,19)                1.5453         estimate D2E/DX2                !
 ! R33   R(18,19)                1.3906         estimate D2E/DX2                !
 ! R34   R(19,20)                1.3955         estimate D2E/DX2                !
 ! R35   R(30,31)                1.4092         estimate D2E/DX2                !
 ! R36   R(30,32)                1.4098         estimate D2E/DX2                !
 ! R37   R(31,33)                1.3893         estimate D2E/DX2                !
 ! R38   R(31,36)                1.0902         estimate D2E/DX2                !
 ! R39   R(32,34)                1.3889         estimate D2E/DX2                !
 ! R40   R(32,37)                1.0903         estimate D2E/DX2                !
 ! R41   R(33,35)                1.3971         estimate D2E/DX2                !
 ! R42   R(33,38)                1.0904         estimate D2E/DX2                !
 ! R43   R(34,35)                1.3973         estimate D2E/DX2                !
 ! R44   R(34,39)                1.0903         estimate D2E/DX2                !
 ! R45   R(35,40)                1.0904         estimate D2E/DX2                !
 ! R46   R(41,42)                1.4093         estimate D2E/DX2                !
 ! R47   R(41,43)                1.41           estimate D2E/DX2                !
 ! R48   R(42,44)                1.3892         estimate D2E/DX2                !
 ! R49   R(42,47)                1.0902         estimate D2E/DX2                !
 ! R50   R(43,45)                1.3888         estimate D2E/DX2                !
 ! R51   R(43,48)                1.0903         estimate D2E/DX2                !
 ! R52   R(44,46)                1.3971         estimate D2E/DX2                !
 ! R53   R(44,49)                1.0904         estimate D2E/DX2                !
 ! R54   R(45,46)                1.3975         estimate D2E/DX2                !
 ! R55   R(45,50)                1.0903         estimate D2E/DX2                !
 ! R56   R(46,51)                1.0904         estimate D2E/DX2                !
 ! A1    A(2,1,5)              108.7844         estimate D2E/DX2                !
 ! A2    A(2,1,19)             124.8401         estimate D2E/DX2                !
 ! A3    A(5,1,19)             125.4509         estimate D2E/DX2                !
 ! A4    A(1,2,3)              109.9901         estimate D2E/DX2                !
 ! A5    A(1,2,21)             120.1558         estimate D2E/DX2                !
 ! A6    A(3,2,21)             129.7966         estimate D2E/DX2                !
 ! A7    A(2,3,4)              106.0238         estimate D2E/DX2                !
 ! A8    A(2,3,30)             125.7723         estimate D2E/DX2                !
 ! A9    A(4,3,30)             128.1969         estimate D2E/DX2                !
 ! A10   A(3,4,5)              107.6164         estimate D2E/DX2                !
 ! A11   A(3,4,22)             127.1137         estimate D2E/DX2                !
 ! A12   A(5,4,22)             125.2637         estimate D2E/DX2                !
 ! A13   A(1,5,4)              107.5586         estimate D2E/DX2                !
 ! A14   A(1,5,12)             120.5253         estimate D2E/DX2                !
 ! A15   A(4,5,12)             131.8875         estimate D2E/DX2                !
 ! A16   A(7,6,11)             120.7505         estimate D2E/DX2                !
 ! A17   A(7,6,23)             120.0466         estimate D2E/DX2                !
 ! A18   A(11,6,23)            119.186          estimate D2E/DX2                !
 ! A19   A(6,7,8)              120.2926         estimate D2E/DX2                !
 ! A20   A(6,7,24)             119.5939         estimate D2E/DX2                !
 ! A21   A(8,7,24)             120.1114         estimate D2E/DX2                !
 ! A22   A(7,8,9)              119.5378         estimate D2E/DX2                !
 ! A23   A(7,8,25)             120.2359         estimate D2E/DX2                !
 ! A24   A(9,8,25)             120.226          estimate D2E/DX2                !
 ! A25   A(8,9,10)             120.353          estimate D2E/DX2                !
 ! A26   A(8,9,26)             120.0879         estimate D2E/DX2                !
 ! A27   A(10,9,26)            119.5557         estimate D2E/DX2                !
 ! A28   A(9,10,11)            120.689          estimate D2E/DX2                !
 ! A29   A(9,10,27)            119.8413         estimate D2E/DX2                !
 ! A30   A(11,10,27)           119.4347         estimate D2E/DX2                !
 ! A31   A(6,11,10)            118.3745         estimate D2E/DX2                !
 ! A32   A(6,11,12)            120.2063         estimate D2E/DX2                !
 ! A33   A(10,11,12)           121.4164         estimate D2E/DX2                !
 ! A34   A(5,12,11)            121.8017         estimate D2E/DX2                !
 ! A35   A(5,12,13)            118.0346         estimate D2E/DX2                !
 ! A36   A(11,12,13)           120.0574         estimate D2E/DX2                !
 ! A37   A(12,13,14)           130.9316         estimate D2E/DX2                !
 ! A38   A(12,13,17)           121.132          estimate D2E/DX2                !
 ! A39   A(14,13,17)           107.6729         estimate D2E/DX2                !
 ! A40   A(13,14,15)           107.5641         estimate D2E/DX2                !
 ! A41   A(13,14,28)           124.8938         estimate D2E/DX2                !
 ! A42   A(15,14,28)           127.4242         estimate D2E/DX2                !
 ! A43   A(14,15,16)           106.0071         estimate D2E/DX2                !
 ! A44   A(14,15,41)           128.2249         estimate D2E/DX2                !
 ! A45   A(16,15,41)           125.7679         estimate D2E/DX2                !
 ! A46   A(15,16,17)           109.937          estimate D2E/DX2                !
 ! A47   A(15,16,29)           129.8552         estimate D2E/DX2                !
 ! A48   A(17,16,29)           120.1986         estimate D2E/DX2                !
 ! A49   A(13,17,16)           108.8128         estimate D2E/DX2                !
 ! A50   A(13,17,19)           125.3089         estimate D2E/DX2                !
 ! A51   A(16,17,19)           125.7522         estimate D2E/DX2                !
 ! A52   A(1,19,17)            104.1176         estimate D2E/DX2                !
 ! A53   A(1,19,18)            110.748          estimate D2E/DX2                !
 ! A54   A(1,19,20)            110.1778         estimate D2E/DX2                !
 ! A55   A(17,19,18)           110.6943         estimate D2E/DX2                !
 ! A56   A(17,19,20)           110.5236         estimate D2E/DX2                !
 ! A57   A(18,19,20)           110.424          estimate D2E/DX2                !
 ! A58   A(3,30,31)            120.6159         estimate D2E/DX2                !
 ! A59   A(3,30,32)            121.0935         estimate D2E/DX2                !
 ! A60   A(31,30,32)           118.2905         estimate D2E/DX2                !
 ! A61   A(30,31,33)           120.7671         estimate D2E/DX2                !
 ! A62   A(30,31,36)           119.6417         estimate D2E/DX2                !
 ! A63   A(33,31,36)           119.5887         estimate D2E/DX2                !
 ! A64   A(30,32,34)           120.7671         estimate D2E/DX2                !
 ! A65   A(30,32,37)           119.8921         estimate D2E/DX2                !
 ! A66   A(34,32,37)           119.3377         estimate D2E/DX2                !
 ! A67   A(31,33,35)           120.2646         estimate D2E/DX2                !
 ! A68   A(31,33,38)           119.6911         estimate D2E/DX2                !
 ! A69   A(35,33,38)           120.0441         estimate D2E/DX2                !
 ! A70   A(32,34,35)           120.2594         estimate D2E/DX2                !
 ! A71   A(32,34,39)           119.6574         estimate D2E/DX2                !
 ! A72   A(35,34,39)           120.083          estimate D2E/DX2                !
 ! A73   A(33,35,34)           119.6513         estimate D2E/DX2                !
 ! A74   A(33,35,40)           120.1802         estimate D2E/DX2                !
 ! A75   A(34,35,40)           120.1685         estimate D2E/DX2                !
 ! A76   A(15,41,42)           120.5873         estimate D2E/DX2                !
 ! A77   A(15,41,43)           121.114          estimate D2E/DX2                !
 ! A78   A(42,41,43)           118.2985         estimate D2E/DX2                !
 ! A79   A(41,42,44)           120.7595         estimate D2E/DX2                !
 ! A80   A(41,42,47)           119.6104         estimate D2E/DX2                !
 ! A81   A(44,42,47)           119.6275         estimate D2E/DX2                !
 ! A82   A(41,43,45)           120.7621         estimate D2E/DX2                !
 ! A83   A(41,43,48)           119.8854         estimate D2E/DX2                !
 ! A84   A(45,43,48)           119.3499         estimate D2E/DX2                !
 ! A85   A(42,44,46)           120.2618         estimate D2E/DX2                !
 ! A86   A(42,44,49)           119.6999         estimate D2E/DX2                !
 ! A87   A(46,44,49)           120.0381         estimate D2E/DX2                !
 ! A88   A(43,45,46)           120.255          estimate D2E/DX2                !
 ! A89   A(43,45,50)           119.6638         estimate D2E/DX2                !
 ! A90   A(46,45,50)           120.081          estimate D2E/DX2                !
 ! A91   A(44,46,45)           119.663          estimate D2E/DX2                !
 ! A92   A(44,46,51)           120.1768         estimate D2E/DX2                !
 ! A93   A(45,46,51)           120.1602         estimate D2E/DX2                !
 ! D1    D(5,1,2,3)             -0.9446         estimate D2E/DX2                !
 ! D2    D(5,1,2,21)          -178.4487         estimate D2E/DX2                !
 ! D3    D(19,1,2,3)           168.5315         estimate D2E/DX2                !
 ! D4    D(19,1,2,21)           -8.9726         estimate D2E/DX2                !
 ! D5    D(2,1,5,4)              1.6022         estimate D2E/DX2                !
 ! D6    D(2,1,5,12)          -176.6754         estimate D2E/DX2                !
 ! D7    D(19,1,5,4)          -167.7937         estimate D2E/DX2                !
 ! D8    D(19,1,5,12)           13.9287         estimate D2E/DX2                !
 ! D9    D(2,1,19,17)          166.759          estimate D2E/DX2                !
 ! D10   D(2,1,19,18)           47.7508         estimate D2E/DX2                !
 ! D11   D(2,1,19,20)          -74.7138         estimate D2E/DX2                !
 ! D12   D(5,1,19,17)          -25.4964         estimate D2E/DX2                !
 ! D13   D(5,1,19,18)         -144.5047         estimate D2E/DX2                !
 ! D14   D(5,1,19,20)           93.0308         estimate D2E/DX2                !
 ! D15   D(1,2,3,4)             -0.0695         estimate D2E/DX2                !
 ! D16   D(1,2,3,30)          -179.1701         estimate D2E/DX2                !
 ! D17   D(21,2,3,4)           177.1215         estimate D2E/DX2                !
 ! D18   D(21,2,3,30)           -1.9791         estimate D2E/DX2                !
 ! D19   D(2,3,4,5)              1.0555         estimate D2E/DX2                !
 ! D20   D(2,3,4,22)          -179.8235         estimate D2E/DX2                !
 ! D21   D(30,3,4,5)          -179.873          estimate D2E/DX2                !
 ! D22   D(30,3,4,22)           -0.7521         estimate D2E/DX2                !
 ! D23   D(2,3,30,31)          172.0844         estimate D2E/DX2                !
 ! D24   D(2,3,30,32)           -8.0225         estimate D2E/DX2                !
 ! D25   D(4,3,30,31)           -6.8156         estimate D2E/DX2                !
 ! D26   D(4,3,30,32)          173.0775         estimate D2E/DX2                !
 ! D27   D(3,4,5,1)             -1.6216         estimate D2E/DX2                !
 ! D28   D(3,4,5,12)           176.3852         estimate D2E/DX2                !
 ! D29   D(22,4,5,1)           179.2369         estimate D2E/DX2                !
 ! D30   D(22,4,5,12)           -2.7562         estimate D2E/DX2                !
 ! D31   D(1,5,12,11)         -179.2479         estimate D2E/DX2                !
 ! D32   D(1,5,12,13)            4.4999         estimate D2E/DX2                !
 ! D33   D(4,5,12,11)            2.9582         estimate D2E/DX2                !
 ! D34   D(4,5,12,13)         -173.294          estimate D2E/DX2                !
 ! D35   D(11,6,7,8)            -0.2557         estimate D2E/DX2                !
 ! D36   D(11,6,7,24)          179.2159         estimate D2E/DX2                !
 ! D37   D(23,6,7,8)          -178.7517         estimate D2E/DX2                !
 ! D38   D(23,6,7,24)            0.72           estimate D2E/DX2                !
 ! D39   D(7,6,11,10)            0.5753         estimate D2E/DX2                !
 ! D40   D(7,6,11,12)          179.9715         estimate D2E/DX2                !
 ! D41   D(23,6,11,10)         179.0841         estimate D2E/DX2                !
 ! D42   D(23,6,11,12)          -1.5198         estimate D2E/DX2                !
 ! D43   D(6,7,8,9)             -0.1972         estimate D2E/DX2                !
 ! D44   D(6,7,8,25)           179.9907         estimate D2E/DX2                !
 ! D45   D(24,7,8,9)          -179.6662         estimate D2E/DX2                !
 ! D46   D(24,7,8,25)            0.5217         estimate D2E/DX2                !
 ! D47   D(7,8,9,10)             0.3188         estimate D2E/DX2                !
 ! D48   D(7,8,9,26)          -179.0098         estimate D2E/DX2                !
 ! D49   D(25,8,9,10)         -179.869          estimate D2E/DX2                !
 ! D50   D(25,8,9,26)            0.8023         estimate D2E/DX2                !
 ! D51   D(8,9,10,11)            0.0113         estimate D2E/DX2                !
 ! D52   D(8,9,10,27)         -177.8234         estimate D2E/DX2                !
 ! D53   D(26,9,10,11)         179.3435         estimate D2E/DX2                !
 ! D54   D(26,9,10,27)           1.5088         estimate D2E/DX2                !
 ! D55   D(9,10,11,6)           -0.4532         estimate D2E/DX2                !
 ! D56   D(9,10,11,12)        -179.8418         estimate D2E/DX2                !
 ! D57   D(27,10,11,6)         177.3902         estimate D2E/DX2                !
 ! D58   D(27,10,11,12)         -1.9984         estimate D2E/DX2                !
 ! D59   D(6,11,12,5)          135.1519         estimate D2E/DX2                !
 ! D60   D(6,11,12,13)         -48.6702         estimate D2E/DX2                !
 ! D61   D(10,11,12,5)         -45.4706         estimate D2E/DX2                !
 ! D62   D(10,11,12,13)        130.7072         estimate D2E/DX2                !
 ! D63   D(5,12,13,14)         166.9617         estimate D2E/DX2                !
 ! D64   D(5,12,13,17)          -6.3662         estimate D2E/DX2                !
 ! D65   D(11,12,13,14)         -9.3583         estimate D2E/DX2                !
 ! D66   D(11,12,13,17)        177.3138         estimate D2E/DX2                !
 ! D67   D(12,13,14,15)       -173.3937         estimate D2E/DX2                !
 ! D68   D(12,13,14,28)          2.9034         estimate D2E/DX2                !
 ! D69   D(17,13,14,15)          0.6148         estimate D2E/DX2                !
 ! D70   D(17,13,14,28)        176.912          estimate D2E/DX2                !
 ! D71   D(12,13,17,16)        173.898          estimate D2E/DX2                !
 ! D72   D(12,13,17,19)         -9.9968         estimate D2E/DX2                !
 ! D73   D(14,13,17,16)         -0.8161         estimate D2E/DX2                !
 ! D74   D(14,13,17,19)        175.2891         estimate D2E/DX2                !
 ! D75   D(13,14,15,16)         -0.2081         estimate D2E/DX2                !
 ! D76   D(13,14,15,41)        179.6571         estimate D2E/DX2                !
 ! D77   D(28,14,15,16)       -176.3836         estimate D2E/DX2                !
 ! D78   D(28,14,15,41)          3.4816         estimate D2E/DX2                !
 ! D79   D(14,15,16,17)         -0.3029         estimate D2E/DX2                !
 ! D80   D(14,15,16,29)       -179.1762         estimate D2E/DX2                !
 ! D81   D(41,15,16,17)        179.8277         estimate D2E/DX2                !
 ! D82   D(41,15,16,29)          0.9544         estimate D2E/DX2                !
 ! D83   D(14,15,41,42)          6.8262         estimate D2E/DX2                !
 ! D84   D(14,15,41,43)       -173.072          estimate D2E/DX2                !
 ! D85   D(16,15,41,42)       -173.3335         estimate D2E/DX2                !
 ! D86   D(16,15,41,43)          6.7683         estimate D2E/DX2                !
 ! D87   D(15,16,17,13)          0.6924         estimate D2E/DX2                !
 ! D88   D(15,16,17,19)       -175.3913         estimate D2E/DX2                !
 ! D89   D(29,16,17,13)        179.6916         estimate D2E/DX2                !
 ! D90   D(29,16,17,19)          3.608          estimate D2E/DX2                !
 ! D91   D(13,17,19,1)          23.4566         estimate D2E/DX2                !
 ! D92   D(13,17,19,18)        142.5014         estimate D2E/DX2                !
 ! D93   D(13,17,19,20)        -94.8334         estimate D2E/DX2                !
 ! D94   D(16,17,19,1)        -161.0874         estimate D2E/DX2                !
 ! D95   D(16,17,19,18)        -42.0426         estimate D2E/DX2                !
 ! D96   D(16,17,19,20)         80.6225         estimate D2E/DX2                !
 ! D97   D(3,30,31,33)         179.9151         estimate D2E/DX2                !
 ! D98   D(3,30,31,36)          -0.6586         estimate D2E/DX2                !
 ! D99   D(32,30,31,33)          0.0191         estimate D2E/DX2                !
 ! D100  D(32,30,31,36)        179.4454         estimate D2E/DX2                !
 ! D101  D(3,30,32,34)        -179.9075         estimate D2E/DX2                !
 ! D102  D(3,30,32,37)          -0.5506         estimate D2E/DX2                !
 ! D103  D(31,30,32,34)         -0.012          estimate D2E/DX2                !
 ! D104  D(31,30,32,37)        179.3449         estimate D2E/DX2                !
 ! D105  D(30,31,33,35)         -0.0161         estimate D2E/DX2                !
 ! D106  D(30,31,33,38)        179.846          estimate D2E/DX2                !
 ! D107  D(36,31,33,35)       -179.4427         estimate D2E/DX2                !
 ! D108  D(36,31,33,38)          0.4193         estimate D2E/DX2                !
 ! D109  D(30,32,34,35)          0.0018         estimate D2E/DX2                !
 ! D110  D(30,32,34,39)        179.848          estimate D2E/DX2                !
 ! D111  D(37,32,34,35)       -179.3586         estimate D2E/DX2                !
 ! D112  D(37,32,34,39)          0.4876         estimate D2E/DX2                !
 ! D113  D(31,33,35,34)          0.0055         estimate D2E/DX2                !
 ! D114  D(31,33,35,40)       -179.9884         estimate D2E/DX2                !
 ! D115  D(38,33,35,34)       -179.8561         estimate D2E/DX2                !
 ! D116  D(38,33,35,40)          0.1501         estimate D2E/DX2                !
 ! D117  D(32,34,35,33)          0.0016         estimate D2E/DX2                !
 ! D118  D(32,34,35,40)        179.9955         estimate D2E/DX2                !
 ! D119  D(39,34,35,33)       -179.8439         estimate D2E/DX2                !
 ! D120  D(39,34,35,40)          0.1499         estimate D2E/DX2                !
 ! D121  D(15,41,42,44)       -179.8873         estimate D2E/DX2                !
 ! D122  D(15,41,42,47)          0.6998         estimate D2E/DX2                !
 ! D123  D(43,41,42,44)          0.0137         estimate D2E/DX2                !
 ! D124  D(43,41,42,47)       -179.3992         estimate D2E/DX2                !
 ! D125  D(15,41,43,45)        179.901          estimate D2E/DX2                !
 ! D126  D(15,41,43,48)          0.4847         estimate D2E/DX2                !
 ! D127  D(42,41,43,45)          0.0005         estimate D2E/DX2                !
 ! D128  D(42,41,43,48)       -179.4158         estimate D2E/DX2                !
 ! D129  D(41,42,44,46)         -0.0123         estimate D2E/DX2                !
 ! D130  D(41,42,44,49)       -179.8643         estimate D2E/DX2                !
 ! D131  D(47,42,44,46)        179.4005         estimate D2E/DX2                !
 ! D132  D(47,42,44,49)         -0.4515         estimate D2E/DX2                !
 ! D133  D(41,43,45,46)         -0.0161         estimate D2E/DX2                !
 ! D134  D(41,43,45,50)       -179.8681         estimate D2E/DX2                !
 ! D135  D(48,43,45,46)        179.4033         estimate D2E/DX2                !
 ! D136  D(48,43,45,50)         -0.4486         estimate D2E/DX2                !
 ! D137  D(42,44,46,45)         -0.0034         estimate D2E/DX2                !
 ! D138  D(42,44,46,51)       -179.9778         estimate D2E/DX2                !
 ! D139  D(49,44,46,45)        179.8481         estimate D2E/DX2                !
 ! D140  D(49,44,46,51)         -0.1263         estimate D2E/DX2                !
 ! D141  D(43,45,46,44)          0.0176         estimate D2E/DX2                !
 ! D142  D(43,45,46,51)        179.9919         estimate D2E/DX2                !
 ! D143  D(50,45,46,44)        179.8689         estimate D2E/DX2                !
 ! D144  D(50,45,46,51)         -0.1568         estimate D2E/DX2                !
 --------------------------------------------------------------------------------
 Trust Radius=3.00D-01 FncErr=5.00D-06 GrdErr=5.00D-06 EigMax=2.50D+02 EigMin=1.00D-04
 Number of steps in this run=    303 maximum allowed number of steps=    306.
 GradGradGradGradGradGradGradGradGradGradGradGradGradGradGradGradGradGrad

 Leave Link  103 at Mon Jan 31 14:39:01 2022, MaxMem= 14763950080 cpu:               0.5 elap:               0.1
 (Enter /lustre1/prg/gaussian/bin/G16_C01_Linda_AVX/g16/l202.exe)
 Symmetry turned off by external request.
 Stoichiometry    C27H19BF2N2
 Framework group  C1[X(C27H19BF2N2)]
 Deg. of freedom   147
 Full point group                 C1      NOp   1
                          Input orientation:                          
 ---------------------------------------------------------------------
 Center     Atomic      Atomic             Coordinates (Angstroms)
 Number     Number       Type             X           Y           Z
 ---------------------------------------------------------------------
      1          7           0       12.623665   -9.450596   -0.988748
      2          6           0       13.637669   -9.874871   -1.738346
      3          6           0       14.376168   -8.762702   -2.232625
      4          6           0       13.732638   -7.611554   -1.726879
      5          6           0       12.657312   -8.039898   -0.934616
      6          6           0       10.509762   -5.144387   -0.159713
      7          6           0       10.495791   -3.753987   -0.099626
      8          6           0       11.687620   -3.043892    0.053677
      9          6           0       12.894234   -3.737873    0.150576
     10          6           0       12.912919   -5.128692    0.088397
     11          6           0       11.720226   -5.855997   -0.072835
     12          6           0       11.721025   -7.324811   -0.137039
     13          6           0       10.821572   -8.074644    0.673244
     14          6           0        9.976586   -7.675934    1.718207
     15          6           0        9.414160   -8.843339    2.280691
     16          6           0        9.947154   -9.934331    1.535849
     17          7           0       10.763890   -9.481042    0.588972
     18          9           0       11.944013  -11.522445    0.059407
     19          5           0       11.459866  -10.340401   -0.490356
     20          9           0       10.580863  -10.615157   -1.538872
     21          1           0       13.771891  -10.937673   -1.924725
     22          1           0       14.012812   -6.577819   -1.896038
     23          1           0        9.577919   -5.694603   -0.300059
     24          1           0        9.547882   -3.220804   -0.181776
     25          1           0       11.675617   -1.954578    0.100490
     26          1           0       13.829087   -3.192818    0.286742
     27          1           0       13.856322   -5.664336    0.200652
     28          1           0        9.847805   -6.652964    2.056443
     29          1           0        9.763407  -11.001343    1.634748
     30          6           0       15.540785   -8.833660   -3.099530
     31          6           0       16.091008   -7.663397   -3.659495
     32          6           0       16.150150  -10.068828   -3.400611
     33          6           0       17.205089   -7.727397   -4.487043
     34          6           0       17.263943  -10.128573   -4.228293
     35          6           0       17.797695   -8.959125   -4.776082
     36          1           0       15.631857   -6.697333   -3.448613
     37          1           0       15.752457  -10.989504   -2.972869
     38          1           0       17.614895   -6.811069   -4.912932
     39          1           0       17.722348  -11.093338   -4.447137
     40          1           0       18.672159   -9.007739   -5.425605
     41          6           0        8.483480   -8.947606    3.391821
     42          6           0        7.916284   -7.790860    3.963171
     43          6           0        8.125834  -10.201918    3.927436
     44          6           0        7.027976   -7.886250    5.026999
     45          6           0        7.237192  -10.292953    4.990815
     46          6           0        6.683492   -9.136533    5.546677
     47          1           0        8.170317   -6.810533    3.559370
     48          1           0        8.556554  -11.113054    3.511443
     49          1           0        6.597672   -6.980098    5.454432
     50          1           0        6.974761  -11.272035    5.392417
     51          1           0        5.985856   -9.209812    6.381445
 ---------------------------------------------------------------------
 Rotational constants (GHZ):           0.2352065           0.0719671           0.0571013
 Leave Link  202 at Mon Jan 31 14:39:01 2022, MaxMem= 14763950080 cpu:               0.3 elap:               0.0
 (Enter /lustre1/prg/gaussian/bin/G16_C01_Linda_AVX/g16/l301.exe)
 Standard basis: CC-pVDZ (5D, 7F)
 Ernie: Thresh=  0.10000D-02 Tol=  0.10000D-05 Strict=F.
 Ernie:  64 primitive shells out of 799 were deleted.
   543 basis functions,  1189 primitive gaussians,   575 cartesian basis functions
   109 alpha electrons      109 beta electrons
       nuclear repulsion energy      2847.5736827302 Hartrees.
 IExCor= 4336 DFT=T Ex+Corr=M062X ExCW=0 ScaHFX=  0.540000
 ScaDFX=  1.000000  1.000000  1.000000  1.000000 ScalE2=  1.000000  1.000000
 IRadAn=      5 IRanWt=     -1 IRanGd=            0 ICorTp=0 IEmpDi=  4
 NAtoms=   51 NActive=   51 NUniq=   51 SFac= 1.00D+00 NAtFMM=   60 NAOKFM=F Big=F
 Integral buffers will be    131072 words long.
 Regular integral format.
 Two-electron integral symmetry is turned off.
 ------------------------------------------------------------------------------
 Polarizable Continuum Model (PCM)
 =================================
 Model                : C-PCM.
 Atomic radii         : UFF (Universal Force Field).
 Polarization charges : Total charges.
 Charge compensation  : None.
 Solution method      : On-the-fly selection.
 Cavity type          : Scaled VdW (van der Waals Surface) (Alpha=1.100).
 Cavity algorithm     : GePol (No added spheres)
                        Default sphere list used, NSphG=   51.
                        Lebedev-Laikov grids with approx.  5.0 points / Ang**2.
                        Smoothing algorithm: York/Karplus (Gamma=1.0000).
                        Polarization charges: spherical gaussians, with
                                              point-specific exponents (IZeta= 3).
                        Self-potential: point-specific (ISelfS= 7).
                        Self-field    : sphere-specific E.n sum rule (ISelfD= 2).
 1st derivatives      : Analytical E(r).r(x)/FMM algorithm (CHGder, D1EAlg=3).
                        Cavity 1st derivative terms included.
 Solvent              : DiMethylSulfoxide, Eps=  46.826000 Eps(inf)=   2.007889
 ------------------------------------------------------------------------------
 GePol: Number of generator spheres                  =      51
 GePol: Total number of spheres                      =      51
 GePol: Number of exposed spheres                    =      51 (100.00%)
 GePol: Number of points                             =    3807
 GePol: Average weight of points                     =       0.13
 GePol: Minimum weight of points                     =   0.22D-10
 GePol: Maximum weight of points                     =    0.20577
 GePol: Number of points with low weight             =     271
 GePol: Fraction of low-weight points (<1% of avg)   =       7.12%
 GePol: Cavity surface area                          =    490.703 Ang**2
 GePol: Cavity volume                                =    556.461 Ang**3
 Leave Link  301 at Mon Jan 31 14:39:01 2022, MaxMem= 14763950080 cpu:               2.4 elap:               0.2
@@@@@@@@@@@@@@@@@@@@@@@@@@@@@@@@@@@@@@@@@@@@@@@@@@@@@@@@@@@
@    WARNING: REMOTE HOST IDENTIFICATION HAS CHANGED!     @
@@@@@@@@@@@@@@@@@@@@@@@@@@@@@@@@@@@@@@@@@@@@@@@@@@@@@@@@@@@
IT IS POSSIBLE THAT SOMEONE IS DOING SOMETHING NASTY!
Someone could be eavesdropping on you right now (man-in-the-middle attack)!
It is also possible that a host key has just been changed.
The fingerprint for the ECDSA key sent by the remote host is
SHA256:Tnt6jgKeNE4xu79xJer5Qo1k90HUKLCLMfJCmTRonTE.
Please contact your system administrator.
Add correct host key in /lustre2/home/toliste/.ssh/known_hosts to get rid of this message.
Offending ECDSA key in /lustre2/home/toliste/.ssh/known_hosts:19
Password authentication is disabled to avoid man-in-the-middle attacks.
Keyboard-interactive authentication is disabled to avoid man-in-the-middle attacks.
@@@@@@@@@@@@@@@@@@@@@@@@@@@@@@@@@@@@@@@@@@@@@@@@@@@@@@@@@@@
@    WARNING: REMOTE HOST IDENTIFICATION HAS CHANGED!     @
@@@@@@@@@@@@@@@@@@@@@@@@@@@@@@@@@@@@@@@@@@@@@@@@@@@@@@@@@@@
IT IS POSSIBLE THAT SOMEONE IS DOING SOMETHING NASTY!
Someone could be eavesdropping on you right now (man-in-the-middle attack)!
It is also possible that a host key has just been changed.
The fingerprint for the ECDSA key sent by the remote host is
SHA256:OYm2GRbxKEYmSkEaZGzDJz775QP8HfsMmF4kZ8w0t5w.
Please contact your system administrator.
Add correct host key in /lustre2/home/toliste/.ssh/known_hosts to get rid of this message.
Offending ECDSA key in /lustre2/home/toliste/.ssh/known_hosts:18
Password authentication is disabled to avoid man-in-the-middle attacks.
Keyboard-interactive authentication is disabled to avoid man-in-the-middle attacks.
@@@@@@@@@@@@@@@@@@@@@@@@@@@@@@@@@@@@@@@@@@@@@@@@@@@@@@@@@@@
@    WARNING: REMOTE HOST IDENTIFICATION HAS CHANGED!     @
@@@@@@@@@@@@@@@@@@@@@@@@@@@@@@@@@@@@@@@@@@@@@@@@@@@@@@@@@@@
@@@@@@@@@@@@@@@@@@@@@@@@@@@@@@@@@@@@@@@@@@@@@@@@@@@@@@@@@@@
IT IS POSSIBLE THAT SOMEONE IS DOING SOMETHING NASTY!
@    WARNING: REMOTE HOST IDENTIFICATION HAS CHANGED!     @
Someone could be eavesdropping on you right now (man-in-the-middle attack)!
@@@@@@@@@@@@@@@@@@@@@@@@@@@@@@@@@@@@@@@@@@@@@@@@@@@@@@@@@@@
It is also possible that a host key has just been changed.
IT IS POSSIBLE THAT SOMEONE IS DOING SOMETHING NASTY!
The fingerprint for the ECDSA key sent by the remote host is
SHA256:+q8uFQCTDFnHDCoyMcOpXxCaXYmjQ8JK+7qR57oSFt8.
Someone could be eavesdropping on you right now (man-in-the-middle attack)!
Please contact your system administrator.
It is also possible that a host key has just been changed.
Add correct host key in /lustre2/home/toliste/.ssh/known_hosts to get rid of this message.
The fingerprint for the ECDSA key sent by the remote host is
SHA256:PvcO3x9Vskcv12bdVwmfJnx4zmhF4mpj2UHIzw8JXVA.
Offending ECDSA key in /lustre2/home/toliste/.ssh/known_hosts:16
Please contact your system administrator.
Password authentication is disabled to avoid man-in-the-middle attacks.
Add correct host key in /lustre2/home/toliste/.ssh/known_hosts to get rid of this message.
Keyboard-interactive authentication is disabled to avoid man-in-the-middle attacks.
Offending ECDSA key in /lustre2/home/toliste/.ssh/known_hosts:17
Password authentication is disabled to avoid man-in-the-middle attacks.
Keyboard-interactive authentication is disabled to avoid man-in-the-middle attacks.
@@@@@@@@@@@@@@@@@@@@@@@@@@@@@@@@@@@@@@@@@@@@@@@@@@@@@@@@@@@
@    WARNING: REMOTE HOST IDENTIFICATION HAS CHANGED!     @
@@@@@@@@@@@@@@@@@@@@@@@@@@@@@@@@@@@@@@@@@@@@@@@@@@@@@@@@@@@
IT IS POSSIBLE THAT SOMEONE IS DOING SOMETHING NASTY!
Someone could be eavesdropping on you right now (man-in-the-middle attack)!
It is also possible that a host key has just been changed.
The fingerprint for the ECDSA key sent by the remote host is
SHA256:4Y/+Crx5e6e2FGTTpJI1EJbi0tsA1YmhfIKBEpKFfpQ.
Please contact your system administrator.
Add correct host key in /lustre2/home/toliste/.ssh/known_hosts to get rid of this message.
Offending ECDSA key in /lustre2/home/toliste/.ssh/known_hosts:15
Password authentication is disabled to avoid man-in-the-middle attacks.
Keyboard-interactive authentication is disabled to avoid man-in-the-middle attacks.
@@@@@@@@@@@@@@@@@@@@@@@@@@@@@@@@@@@@@@@@@@@@@@@@@@@@@@@@@@@
@    WARNING: REMOTE HOST IDENTIFICATION HAS CHANGED!     @
@@@@@@@@@@@@@@@@@@@@@@@@@@@@@@@@@@@@@@@@@@@@@@@@@@@@@@@@@@@
IT IS POSSIBLE THAT SOMEONE IS DOING SOMETHING NASTY!
Someone could be eavesdropping on you right now (man-in-the-middle attack)!
It is also possible that a host key has just been changed.
The fingerprint for the ECDSA key sent by the remote host is
SHA256:PtGekRt5kIdwr9ajwpZwVcRm6RW6QxmnrJiFNVjlsS8.
Please contact your system administrator.
Add correct host key in /lustre2/home/toliste/.ssh/known_hosts to get rid of this message.
Offending ECDSA key in /lustre2/home/toliste/.ssh/known_hosts:33
Password authentication is disabled to avoid man-in-the-middle attacks.
Keyboard-interactive authentication is disabled to avoid man-in-the-middle attacks.
@@@@@@@@@@@@@@@@@@@@@@@@@@@@@@@@@@@@@@@@@@@@@@@@@@@@@@@@@@@
@    WARNING: REMOTE HOST IDENTIFICATION HAS CHANGED!     @
@@@@@@@@@@@@@@@@@@@@@@@@@@@@@@@@@@@@@@@@@@@@@@@@@@@@@@@@@@@
IT IS POSSIBLE THAT SOMEONE IS DOING SOMETHING NASTY!
Someone could be eavesdropping on you right now (man-in-the-middle attack)!
It is also possible that a host key has just been changed.
The fingerprint for the ECDSA key sent by the remote host is
SHA256:AbtRoCZhYmwx8CpFkVHPkXtemzo8eLun39oDL39cDhA.
Please contact your system administrator.
Add correct host key in /lustre2/home/toliste/.ssh/known_hosts to get rid of this message.
Offending ECDSA key in /lustre2/home/toliste/.ssh/known_hosts:20
Password authentication is disabled to avoid man-in-the-middle attacks.
Keyboard-interactive authentication is disabled to avoid man-in-the-middle attacks.
 (Enter /lustre1/prg/gaussian/bin/G16_C01_Linda_AVX/g16/linda-exe/l302.exel)
 NPDir=0 NMtPBC=     1 NCelOv=     1 NCel=       1 NClECP=     1 NCelD=      1
         NCelK=      1 NCelE2=     1 NClLst=     1 CellRange=     0.0.
 One-electron integrals computed using PRISM.
 NBasis=   543 RedAO= T EigKep=  2.34D-04  NBF=   543
 NBsUse=   543 1.00D-06 EigRej= -1.00D+00 NBFU=   543
 Precomputing XC quadrature grid using
 IXCGrd= 4 IRadAn=           5 IRanWt=          -1 IRanGd=           0 AccXCQ= 0.00D+00.
 Generated NRdTot=       0 NPtTot=           0 NUsed=           0 NTot=          32
 NSgBfM=   557   557   557   557   557 MxSgAt=    51 MxSgA2=    51.
 Leave Link  302 at Mon Jan 31 14:39:05 2022, MaxMem= 14763950080 cpu:              32.0 elap:               2.1
 (Enter /lustre1/prg/gaussian/bin/G16_C01_Linda_AVX/g16/l303.exe)
 DipDrv:  MaxL=1.
 Leave Link  303 at Mon Jan 31 14:39:06 2022, MaxMem= 14763950080 cpu:               2.9 elap:               0.2
 (Enter /lustre1/prg/gaussian/bin/G16_C01_Linda_AVX/g16/l308.exe)
 Leave Link  308 at Mon Jan 31 14:39:06 2022, MaxMem= 14763950080 cpu:               3.8 elap:               0.3
@@@@@@@@@@@@@@@@@@@@@@@@@@@@@@@@@@@@@@@@@@@@@@@@@@@@@@@@@@@
@    WARNING: REMOTE HOST IDENTIFICATION HAS CHANGED!     @
@@@@@@@@@@@@@@@@@@@@@@@@@@@@@@@@@@@@@@@@@@@@@@@@@@@@@@@@@@@
IT IS POSSIBLE THAT SOMEONE IS DOING SOMETHING NASTY!
Someone could be eavesdropping on you right now (man-in-the-middle attack)!
It is also possible that a host key has just been changed.
The fingerprint for the ECDSA key sent by the remote host is
SHA256:OYm2GRbxKEYmSkEaZGzDJz775QP8HfsMmF4kZ8w0t5w.
Please contact your system administrator.
Add correct host key in /lustre2/home/toliste/.ssh/known_hosts to get rid of this message.
Offending ECDSA key in /lustre2/home/toliste/.ssh/known_hosts:18
Password authentication is disabled to avoid man-in-the-middle attacks.
Keyboard-interactive authentication is disabled to avoid man-in-the-middle attacks.
@@@@@@@@@@@@@@@@@@@@@@@@@@@@@@@@@@@@@@@@@@@@@@@@@@@@@@@@@@@
@    WARNING: REMOTE HOST IDENTIFICATION HAS CHANGED!     @
@@@@@@@@@@@@@@@@@@@@@@@@@@@@@@@@@@@@@@@@@@@@@@@@@@@@@@@@@@@
IT IS POSSIBLE THAT SOMEONE IS DOING SOMETHING NASTY!
Someone could be eavesdropping on you right now (man-in-the-middle attack)!
It is also possible that a host key has just been changed.
@@@@@@@@@@@@@@@@@@@@@@@@@@@@@@@@@@@@@@@@@@@@@@@@@@@@@@@@@@@
The fingerprint for the ECDSA key sent by the remote host is
SHA256:AbtRoCZhYmwx8CpFkVHPkXtemzo8eLun39oDL39cDhA.
@    WARNING: REMOTE HOST IDENTIFICATION HAS CHANGED!     @
Please contact your system administrator.
@@@@@@@@@@@@@@@@@@@@@@@@@@@@@@@@@@@@@@@@@@@@@@@@@@@@@@@@@@@
Add correct host key in /lustre2/home/toliste/.ssh/known_hosts to get rid of this message.
IT IS POSSIBLE THAT SOMEONE IS DOING SOMETHING NASTY!
Offending ECDSA key in /lustre2/home/toliste/.ssh/known_hosts:20
Someone could be eavesdropping on you right now (man-in-the-middle attack)!
Password authentication is disabled to avoid man-in-the-middle attacks.
It is also possible that a host key has just been changed.
Keyboard-interactive authentication is disabled to avoid man-in-the-middle attacks.
The fingerprint for the ECDSA key sent by the remote host is
SHA256:4Y/+Crx5e6e2FGTTpJI1EJbi0tsA1YmhfIKBEpKFfpQ.
Please contact your system administrator.
@@@@@@@@@@@@@@@@@@@@@@@@@@@@@@@@@@@@@@@@@@@@@@@@@@@@@@@@@@@
Add correct host key in /lustre2/home/toliste/.ssh/known_hosts to get rid of this message.
@    WARNING: REMOTE HOST IDENTIFICATION HAS CHANGED!     @
Offending ECDSA key in /lustre2/home/toliste/.ssh/known_hosts:15
@@@@@@@@@@@@@@@@@@@@@@@@@@@@@@@@@@@@@@@@@@@@@@@@@@@@@@@@@@@
Password authentication is disabled to avoid man-in-the-middle attacks.
IT IS POSSIBLE THAT SOMEONE IS DOING SOMETHING NASTY!
Keyboard-interactive authentication is disabled to avoid man-in-the-middle attacks.
Someone could be eavesdropping on you right now (man-in-the-middle attack)!
It is also possible that a host key has just been changed.
The fingerprint for the ECDSA key sent by the remote host is
SHA256:+q8uFQCTDFnHDCoyMcOpXxCaXYmjQ8JK+7qR57oSFt8.
Please contact your system administrator.
Add correct host key in /lustre2/home/toliste/.ssh/known_hosts to get rid of this message.
Offending ECDSA key in /lustre2/home/toliste/.ssh/known_hosts:16
Password authentication is disabled to avoid man-in-the-middle attacks.
Keyboard-interactive authentication is disabled to avoid man-in-the-middle attacks.
@@@@@@@@@@@@@@@@@@@@@@@@@@@@@@@@@@@@@@@@@@@@@@@@@@@@@@@@@@@
@    WARNING: REMOTE HOST IDENTIFICATION HAS CHANGED!     @
@@@@@@@@@@@@@@@@@@@@@@@@@@@@@@@@@@@@@@@@@@@@@@@@@@@@@@@@@@@
IT IS POSSIBLE THAT SOMEONE IS DOING SOMETHING NASTY!
Someone could be eavesdropping on you right now (man-in-the-middle attack)!
It is also possible that a host key has just been changed.
The fingerprint for the ECDSA key sent by the remote host is
SHA256:PvcO3x9Vskcv12bdVwmfJnx4zmhF4mpj2UHIzw8JXVA.
Please contact your system administrator.
Add correct host key in /lustre2/home/toliste/.ssh/known_hosts to get rid of this message.
Offending ECDSA key in /lustre2/home/toliste/.ssh/known_hosts:17
Password authentication is disabled to avoid man-in-the-middle attacks.
Keyboard-interactive authentication is disabled to avoid man-in-the-middle attacks.
@@@@@@@@@@@@@@@@@@@@@@@@@@@@@@@@@@@@@@@@@@@@@@@@@@@@@@@@@@@
@    WARNING: REMOTE HOST IDENTIFICATION HAS CHANGED!     @
@@@@@@@@@@@@@@@@@@@@@@@@@@@@@@@@@@@@@@@@@@@@@@@@@@@@@@@@@@@
IT IS POSSIBLE THAT SOMEONE IS DOING SOMETHING NASTY!
Someone could be eavesdropping on you right now (man-in-the-middle attack)!
It is also possible that a host key has just been changed.
The fingerprint for the ECDSA key sent by the remote host is
SHA256:Tnt6jgKeNE4xu79xJer5Qo1k90HUKLCLMfJCmTRonTE.
Please contact your system administrator.
Add correct host key in /lustre2/home/toliste/.ssh/known_hosts to get rid of this message.
Offending ECDSA key in /lustre2/home/toliste/.ssh/known_hosts:19
Password authentication is disabled to avoid man-in-the-middle attacks.
Keyboard-interactive authentication is disabled to avoid man-in-the-middle attacks.
@@@@@@@@@@@@@@@@@@@@@@@@@@@@@@@@@@@@@@@@@@@@@@@@@@@@@@@@@@@
@    WARNING: REMOTE HOST IDENTIFICATION HAS CHANGED!     @
@@@@@@@@@@@@@@@@@@@@@@@@@@@@@@@@@@@@@@@@@@@@@@@@@@@@@@@@@@@
IT IS POSSIBLE THAT SOMEONE IS DOING SOMETHING NASTY!
Someone could be eavesdropping on you right now (man-in-the-middle attack)!
It is also possible that a host key has just been changed.
The fingerprint for the ECDSA key sent by the remote host is
SHA256:PtGekRt5kIdwr9ajwpZwVcRm6RW6QxmnrJiFNVjlsS8.
Please contact your system administrator.
Add correct host key in /lustre2/home/toliste/.ssh/known_hosts to get rid of this message.
Offending ECDSA key in /lustre2/home/toliste/.ssh/known_hosts:33
Password authentication is disabled to avoid man-in-the-middle attacks.
Keyboard-interactive authentication is disabled to avoid man-in-the-middle attacks.
 (Enter /lustre1/prg/gaussian/bin/G16_C01_Linda_AVX/g16/linda-exe/l401.exel)
 ExpMin= 9.54D-02 ExpMax= 1.47D+04 ExpMxC= 5.03D+02 IAcc=3 IRadAn=         5 AccDes= 0.00D+00
 Harris functional with IExCor= 1009 and IRadAn=       5 diagonalized for initial guess.
 HarFok:  IExCor= 1009 AccDes= 0.00D+00 IRadAn=         5 IDoV= 1 UseB2=F ITyADJ=14
 ICtDFT=  3500011 ScaDFX=  1.000000  1.000000  1.000000  1.000000
 FoFCou: FMM=F IPFlag=           0 FMFlag=      100000 FMFlg1=           0
         NFxFlg=           0 DoJE=T BraDBF=F KetDBF=T FulRan=T
         wScrn=  0.000000 ICntrl=       500 IOpCl=  0 I1Cent=   200000004 NGrid=           0
         NMat0=    1 NMatS0=      1 NMatT0=    0 NMatD0=    1 NMtDS0=    0 NMtDT0=    0
 Symmetry not used in FoFCou.
 Harris En= -1373.28886088229    
 JPrj=0 DoOrth=F DoCkMO=F.
 Leave Link  401 at Mon Jan 31 14:39:12 2022, MaxMem= 14763950080 cpu:              68.6 elap:               4.5
@@@@@@@@@@@@@@@@@@@@@@@@@@@@@@@@@@@@@@@@@@@@@@@@@@@@@@@@@@@
@    WARNING: REMOTE HOST IDENTIFICATION HAS CHANGED!     @
@@@@@@@@@@@@@@@@@@@@@@@@@@@@@@@@@@@@@@@@@@@@@@@@@@@@@@@@@@@
IT IS POSSIBLE THAT SOMEONE IS DOING SOMETHING NASTY!
Someone could be eavesdropping on you right now (man-in-the-middle attack)!
It is also possible that a host key has just been changed.
The fingerprint for the ECDSA key sent by the remote host is
SHA256:Tnt6jgKeNE4xu79xJer5Qo1k90HUKLCLMfJCmTRonTE.
Please contact your system administrator.
Add correct host key in /lustre2/home/toliste/.ssh/known_hosts to get rid of this message.
Offending ECDSA key in /lustre2/home/toliste/.ssh/known_hosts:19
Password authentication is disabled to avoid man-in-the-middle attacks.
Keyboard-interactive authentication is disabled to avoid man-in-the-middle attacks.
@@@@@@@@@@@@@@@@@@@@@@@@@@@@@@@@@@@@@@@@@@@@@@@@@@@@@@@@@@@
@    WARNING: REMOTE HOST IDENTIFICATION HAS CHANGED!     @
@@@@@@@@@@@@@@@@@@@@@@@@@@@@@@@@@@@@@@@@@@@@@@@@@@@@@@@@@@@
IT IS POSSIBLE THAT SOMEONE IS DOING SOMETHING NASTY!
Someone could be eavesdropping on you right now (man-in-the-middle attack)!
It is also possible that a host key has just been changed.
The fingerprint for the ECDSA key sent by the remote host is
SHA256:OYm2GRbxKEYmSkEaZGzDJz775QP8HfsMmF4kZ8w0t5w.
Please contact your system administrator.
Add correct host key in /lustre2/home/toliste/.ssh/known_hosts to get rid of this message.
Offending ECDSA key in /lustre2/home/toliste/.ssh/known_hosts:18
Password authentication is disabled to avoid man-in-the-middle attacks.
Keyboard-interactive authentication is disabled to avoid man-in-the-middle attacks.
@@@@@@@@@@@@@@@@@@@@@@@@@@@@@@@@@@@@@@@@@@@@@@@@@@@@@@@@@@@
@    WARNING: REMOTE HOST IDENTIFICATION HAS CHANGED!     @
@@@@@@@@@@@@@@@@@@@@@@@@@@@@@@@@@@@@@@@@@@@@@@@@@@@@@@@@@@@
IT IS POSSIBLE THAT SOMEONE IS DOING SOMETHING NASTY!
Someone could be eavesdropping on you right now (man-in-the-middle attack)!
It is also possible that a host key has just been changed.
The fingerprint for the ECDSA key sent by the remote host is
SHA256:4Y/+Crx5e6e2FGTTpJI1EJbi0tsA1YmhfIKBEpKFfpQ.
Please contact your system administrator.
Add correct host key in /lustre2/home/toliste/.ssh/known_hosts to get rid of this message.
Offending ECDSA key in /lustre2/home/toliste/.ssh/known_hosts:15
Password authentication is disabled to avoid man-in-the-middle attacks.
Keyboard-interactive authentication is disabled to avoid man-in-the-middle attacks.
@@@@@@@@@@@@@@@@@@@@@@@@@@@@@@@@@@@@@@@@@@@@@@@@@@@@@@@@@@@
@    WARNING: REMOTE HOST IDENTIFICATION HAS CHANGED!     @
@@@@@@@@@@@@@@@@@@@@@@@@@@@@@@@@@@@@@@@@@@@@@@@@@@@@@@@@@@@
IT IS POSSIBLE THAT SOMEONE IS DOING SOMETHING NASTY!
Someone could be eavesdropping on you right now (man-in-the-middle attack)!
It is also possible that a host key has just been changed.
The fingerprint for the ECDSA key sent by the remote host is
SHA256:PvcO3x9Vskcv12bdVwmfJnx4zmhF4mpj2UHIzw8JXVA.
Please contact your system administrator.
Add correct host key in /lustre2/home/toliste/.ssh/known_hosts to get rid of this message.
Offending ECDSA key in /lustre2/home/toliste/.ssh/known_hosts:17
Password authentication is disabled to avoid man-in-the-middle attacks.
Keyboard-interactive authentication is disabled to avoid man-in-the-middle attacks.
@@@@@@@@@@@@@@@@@@@@@@@@@@@@@@@@@@@@@@@@@@@@@@@@@@@@@@@@@@@
@    WARNING: REMOTE HOST IDENTIFICATION HAS CHANGED!     @
@@@@@@@@@@@@@@@@@@@@@@@@@@@@@@@@@@@@@@@@@@@@@@@@@@@@@@@@@@@
IT IS POSSIBLE THAT SOMEONE IS DOING SOMETHING NASTY!
Someone could be eavesdropping on you right now (man-in-the-middle attack)!
It is also possible that a host key has just been changed.
The fingerprint for the ECDSA key sent by the remote host is
SHA256:PtGekRt5kIdwr9ajwpZwVcRm6RW6QxmnrJiFNVjlsS8.
Please contact your system administrator.
Add correct host key in /lustre2/home/toliste/.ssh/known_hosts to get rid of this message.
Offending ECDSA key in /lustre2/home/toliste/.ssh/known_hosts:33
Password authentication is disabled to avoid man-in-the-middle attacks.
Keyboard-interactive authentication is disabled to avoid man-in-the-middle attacks.
@@@@@@@@@@@@@@@@@@@@@@@@@@@@@@@@@@@@@@@@@@@@@@@@@@@@@@@@@@@
@    WARNING: REMOTE HOST IDENTIFICATION HAS CHANGED!     @
@@@@@@@@@@@@@@@@@@@@@@@@@@@@@@@@@@@@@@@@@@@@@@@@@@@@@@@@@@@
IT IS POSSIBLE THAT SOMEONE IS DOING SOMETHING NASTY!
Someone could be eavesdropping on you right now (man-in-the-middle attack)!
It is also possible that a host key has just been changed.
The fingerprint for the ECDSA key sent by the remote host is
SHA256:+q8uFQCTDFnHDCoyMcOpXxCaXYmjQ8JK+7qR57oSFt8.
Please contact your system administrator.
Add correct host key in /lustre2/home/toliste/.ssh/known_hosts to get rid of this message.
Offending ECDSA key in /lustre2/home/toliste/.ssh/known_hosts:16
Password authentication is disabled to avoid man-in-the-middle attacks.
Keyboard-interactive authentication is disabled to avoid man-in-the-middle attacks.
@@@@@@@@@@@@@@@@@@@@@@@@@@@@@@@@@@@@@@@@@@@@@@@@@@@@@@@@@@@
@    WARNING: REMOTE HOST IDENTIFICATION HAS CHANGED!     @
@@@@@@@@@@@@@@@@@@@@@@@@@@@@@@@@@@@@@@@@@@@@@@@@@@@@@@@@@@@
IT IS POSSIBLE THAT SOMEONE IS DOING SOMETHING NASTY!
Someone could be eavesdropping on you right now (man-in-the-middle attack)!
It is also possible that a host key has just been changed.
The fingerprint for the ECDSA key sent by the remote host is
SHA256:AbtRoCZhYmwx8CpFkVHPkXtemzo8eLun39oDL39cDhA.
Please contact your system administrator.
Add correct host key in /lustre2/home/toliste/.ssh/known_hosts to get rid of this message.
Offending ECDSA key in /lustre2/home/toliste/.ssh/known_hosts:20
Password authentication is disabled to avoid man-in-the-middle attacks.
Keyboard-interactive authentication is disabled to avoid man-in-the-middle attacks.
 (Enter /lustre1/prg/gaussian/bin/G16_C01_Linda_AVX/g16/linda-exe/l502.exel)
 Two-electron integral symmetry not used.
 Closed shell SCF:
 Using DIIS extrapolation, IDIIS=  1040.
 NGot= 14763950080 LenX= 14763273835 LenY= 14762942635
 Requested convergence on RMS density matrix=1.00D-08 within 128 cycles.
 Requested convergence on MAX density matrix=1.00D-06.
 Requested convergence on             energy=1.00D-06.
 No special actions if energy rises.
 Fock matrices will be formed incrementally for  20 cycles.

 Cycle   1  Pass 1  IDiag  1:
 FoFJK:  IHMeth= 1 ICntrl=       0 DoSepK=F KAlg= 0 I1Cent=           0 FoldK=F
 IRaf= 680000000 NMat=       1 IRICut=       1 DoRegI=T DoRafI=F ISym2E= 0 IDoP0=0 IntGTp=1.
 FoFCou: FMM=F IPFlag=           0 FMFlag=      100000 FMFlg1=           0
         NFxFlg=           0 DoJE=F BraDBF=F KetDBF=F FulRan=T
         wScrn=  0.000000 ICntrl=         0 IOpCl=  0 I1Cent=           0 NGrid=           0
         NMat0=    1 NMatS0=      1 NMatT0=    0 NMatD0=    1 NMtDS0=    0 NMtDT0=    0
 Symmetry not used in FoFCou.
 Inv3:  Mode=1 IEnd=    43479747.
 Iteration    1 A*A^-1 deviation from unit magnitude is 1.37D-14 for   3805.
 Iteration    1 A*A^-1 deviation from orthogonality  is 3.86D-15 for   3805   1510.
 Iteration    1 A^-1*A deviation from unit magnitude is 1.37D-14 for   3805.
 Iteration    1 A^-1*A deviation from orthogonality  is 2.11D-15 for   3791   1611.
 E= -1373.64134774172    
 DIIS: error= 3.98D-02 at cycle   1 NSaved=   1.
 NSaved= 1 IEnMin= 1 EnMin= -1373.64134774172     IErMin= 1 ErrMin= 3.98D-02
 ErrMax= 3.98D-02  0.00D+00 EMaxC= 1.00D-01 BMatC= 5.16D-01 BMatP= 5.16D-01
 IDIUse=3 WtCom= 6.02D-01 WtEn= 3.98D-01
 Coeff-Com:  0.100D+01
 Coeff-En:   0.100D+01
 Coeff:      0.100D+01
 Gap=     0.147 Goal=   None    Shift=    0.000
 GapD=    0.147 DampG=1.000 DampE=0.500 DampFc=0.5000 IDamp=-1.
 Damping current iteration by 5.00D-01
 RMSDP=3.22D-03 MaxDP=1.25D-01              OVMax= 1.58D-01

 Cycle   2  Pass 1  IDiag  1:
 RMSU=  1.51D-03    CP:  9.63D-01
 E= -1373.91604672557     Delta-E=       -0.274698983850 Rises=F Damp=T
 DIIS: error= 7.90D-03 at cycle   2 NSaved=   2.
 NSaved= 2 IEnMin= 2 EnMin= -1373.91604672557     IErMin= 2 ErrMin= 7.90D-03
 ErrMax= 7.90D-03  0.00D+00 EMaxC= 1.00D-01 BMatC= 4.41D-02 BMatP= 5.16D-01
 IDIUse=3 WtCom= 9.21D-01 WtEn= 7.90D-02
 Coeff-Com: -0.149D+00 0.115D+01
 Coeff-En:   0.000D+00 0.100D+01
 Coeff:     -0.137D+00 0.114D+01
 Gap=     0.173 Goal=   None    Shift=    0.000
 RMSDP=1.10D-03 MaxDP=5.72D-02 DE=-2.75D-01 OVMax= 8.61D-02

 Cycle   3  Pass 1  IDiag  1:
 RMSU=  7.78D-04    CP:  9.36D-01  1.45D+00
 E= -1374.15623742605     Delta-E=       -0.240190700475 Rises=F Damp=F
 DIIS: error= 4.14D-03 at cycle   3 NSaved=   3.
 NSaved= 3 IEnMin= 3 EnMin= -1374.15623742605     IErMin= 3 ErrMin= 4.14D-03
 ErrMax= 4.14D-03  0.00D+00 EMaxC= 1.00D-01 BMatC= 1.58D-02 BMatP= 4.41D-02
 IDIUse=3 WtCom= 9.59D-01 WtEn= 4.14D-02
 Coeff-Com: -0.114D+00 0.455D+00 0.658D+00
 Coeff-En:   0.000D+00 0.000D+00 0.100D+01
 Coeff:     -0.109D+00 0.437D+00 0.672D+00
 Gap=     0.151 Goal=   None    Shift=    0.000
 RMSDP=3.13D-04 MaxDP=1.78D-02 DE=-2.40D-01 OVMax= 4.12D-02

 Cycle   4  Pass 1  IDiag  1:
 RMSU=  2.34D-04    CP:  9.38D-01  1.48D+00  7.40D-01
 E= -1374.16778079449     Delta-E=       -0.011543368441 Rises=F Damp=F
 DIIS: error= 2.25D-03 at cycle   4 NSaved=   4.
 NSaved= 4 IEnMin= 4 EnMin= -1374.16778079449     IErMin= 4 ErrMin= 2.25D-03
 ErrMax= 2.25D-03  0.00D+00 EMaxC= 1.00D-01 BMatC= 3.68D-03 BMatP= 1.58D-02
 IDIUse=3 WtCom= 9.78D-01 WtEn= 2.25D-02
 Coeff-Com: -0.398D-01 0.109D+00 0.361D+00 0.570D+00
 Coeff-En:   0.000D+00 0.000D+00 0.176D+00 0.824D+00
 Coeff:     -0.389D-01 0.106D+00 0.357D+00 0.576D+00
 Gap=     0.153 Goal=   None    Shift=    0.000
 RMSDP=1.17D-04 MaxDP=7.64D-03 DE=-1.15D-02 OVMax= 1.78D-02

 Cycle   5  Pass 1  IDiag  1:
 RMSU=  5.85D-05    CP:  9.37D-01  1.48D+00  8.16D-01  6.52D-01
 E= -1374.17125194141     Delta-E=       -0.003471146920 Rises=F Damp=F
 DIIS: error= 4.48D-04 at cycle   5 NSaved=   5.
 NSaved= 5 IEnMin= 5 EnMin= -1374.17125194141     IErMin= 5 ErrMin= 4.48D-04
 ErrMax= 4.48D-04  0.00D+00 EMaxC= 1.00D-01 BMatC= 1.77D-04 BMatP= 3.68D-03
 IDIUse=3 WtCom= 9.96D-01 WtEn= 4.48D-03
 Coeff-Com: -0.922D-02 0.151D-01 0.111D+00 0.259D+00 0.624D+00
 Coeff-En:   0.000D+00 0.000D+00 0.000D+00 0.000D+00 0.100D+01
 Coeff:     -0.918D-02 0.150D-01 0.111D+00 0.258D+00 0.625D+00
 Gap=     0.153 Goal=   None    Shift=    0.000
 RMSDP=2.72D-05 MaxDP=1.74D-03 DE=-3.47D-03 OVMax= 2.90D-03

 Cycle   6  Pass 1  IDiag  1:
 RMSU=  1.85D-05    CP:  9.37D-01  1.48D+00  8.20D-01  6.93D-01  7.19D-01
 E= -1374.17142352614     Delta-E=       -0.000171584727 Rises=F Damp=F
 DIIS: error= 1.29D-04 at cycle   6 NSaved=   6.
 NSaved= 6 IEnMin= 6 EnMin= -1374.17142352614     IErMin= 6 ErrMin= 1.29D-04
 ErrMax= 1.29D-04  0.00D+00 EMaxC= 1.00D-01 BMatC= 1.07D-05 BMatP= 1.77D-04
 IDIUse=3 WtCom= 9.99D-01 WtEn= 1.29D-03
 Coeff-Com: -0.155D-02 0.326D-03 0.240D-01 0.694D-01 0.258D+00 0.650D+00
 Coeff-En:   0.000D+00 0.000D+00 0.000D+00 0.000D+00 0.000D+00 0.100D+01
 Coeff:     -0.155D-02 0.325D-03 0.240D-01 0.693D-01 0.257D+00 0.651D+00
 Gap=     0.154 Goal=   None    Shift=    0.000
 RMSDP=8.03D-06 MaxDP=2.97D-04 DE=-1.72D-04 OVMax= 1.63D-03

 Cycle   7  Pass 1  IDiag  1:
 RMSU=  6.35D-06    CP:  9.37D-01  1.48D+00  8.22D-01  6.94D-01  7.89D-01
                    CP:  8.74D-01
 E= -1374.17143564770     Delta-E=       -0.000012121562 Rises=F Damp=F
 DIIS: error= 3.71D-05 at cycle   7 NSaved=   7.
 NSaved= 7 IEnMin= 7 EnMin= -1374.17143564770     IErMin= 7 ErrMin= 3.71D-05
 ErrMax= 3.71D-05  0.00D+00 EMaxC= 1.00D-01 BMatC= 1.04D-06 BMatP= 1.07D-05
 IDIUse=1 WtCom= 1.00D+00 WtEn= 0.00D+00
 Coeff-Com:  0.601D-03-0.186D-02-0.487D-02-0.630D-02 0.142D-01 0.222D+00
 Coeff-Com:  0.776D+00
 Coeff:      0.601D-03-0.186D-02-0.487D-02-0.630D-02 0.142D-01 0.222D+00
 Coeff:      0.776D+00
 Gap=     0.154 Goal=   None    Shift=    0.000
 RMSDP=3.21D-06 MaxDP=1.24D-04 DE=-1.21D-05 OVMax= 5.84D-04

 Cycle   8  Pass 1  IDiag  1:
 RMSU=  2.28D-06    CP:  9.37D-01  1.48D+00  8.22D-01  6.99D-01  8.01D-01
                    CP:  9.75D-01  1.01D+00
 E= -1374.17143705980     Delta-E=       -0.000001412104 Rises=F Damp=F
 DIIS: error= 1.79D-05 at cycle   8 NSaved=   8.
 NSaved= 8 IEnMin= 8 EnMin= -1374.17143705980     IErMin= 8 ErrMin= 1.79D-05
 ErrMax= 1.79D-05  0.00D+00 EMaxC= 1.00D-01 BMatC= 2.16D-07 BMatP= 1.04D-06
 IDIUse=1 WtCom= 1.00D+00 WtEn= 0.00D+00
 Coeff-Com:  0.599D-03-0.101D-02-0.662D-02-0.155D-01-0.398D-01-0.451D-02
 Coeff-Com:  0.367D+00 0.700D+00
 Coeff:      0.599D-03-0.101D-02-0.662D-02-0.155D-01-0.398D-01-0.451D-02
 Coeff:      0.367D+00 0.700D+00
 Gap=     0.154 Goal=   None    Shift=    0.000
 RMSDP=1.40D-06 MaxDP=6.61D-05 DE=-1.41D-06 OVMax= 3.73D-04

 Cycle   9  Pass 1  IDiag  1:
 RMSU=  7.34D-07    CP:  9.37D-01  1.48D+00  8.22D-01  6.99D-01  8.09D-01
                    CP:  1.01D+00  1.11D+00  7.87D-01
 E= -1374.17143737498     Delta-E=       -0.000000315174 Rises=F Damp=F
 DIIS: error= 3.26D-06 at cycle   9 NSaved=   9.
 NSaved= 9 IEnMin= 9 EnMin= -1374.17143737498     IErMin= 9 ErrMin= 3.26D-06
 ErrMax= 3.26D-06  0.00D+00 EMaxC= 1.00D-01 BMatC= 1.14D-08 BMatP= 2.16D-07
 IDIUse=1 WtCom= 1.00D+00 WtEn= 0.00D+00
 Coeff-Com:  0.154D-03-0.208D-03-0.170D-02-0.439D-02-0.135D-01-0.117D-01
 Coeff-Com:  0.608D-01 0.229D+00 0.741D+00
 Coeff:      0.154D-03-0.208D-03-0.170D-02-0.439D-02-0.135D-01-0.117D-01
 Coeff:      0.608D-01 0.229D+00 0.741D+00
 Gap=     0.154 Goal=   None    Shift=    0.000
 RMSDP=3.59D-07 MaxDP=2.44D-05 DE=-3.15D-07 OVMax= 5.44D-05

 Cycle  10  Pass 1  IDiag  1:
 RMSU=  2.50D-07    CP:  9.37D-01  1.48D+00  8.22D-01  7.00D-01  8.09D-01
                    CP:  1.02D+00  1.13D+00  8.61D-01  9.82D-01
 E= -1374.17143738990     Delta-E=       -0.000000014919 Rises=F Damp=F
 DIIS: error= 1.58D-06 at cycle  10 NSaved=  10.
 NSaved=10 IEnMin=10 EnMin= -1374.17143738990     IErMin=10 ErrMin= 1.58D-06
 ErrMax= 1.58D-06  0.00D+00 EMaxC= 1.00D-01 BMatC= 2.68D-09 BMatP= 1.14D-08
 IDIUse=1 WtCom= 1.00D+00 WtEn= 0.00D+00
 Coeff-Com: -0.193D-04 0.544D-04 0.273D-03 0.459D-03-0.523D-04-0.435D-02
 Coeff-Com: -0.339D-01 0.142D-02 0.350D+00 0.686D+00
 Coeff:     -0.193D-04 0.544D-04 0.273D-03 0.459D-03-0.523D-04-0.435D-02
 Coeff:     -0.339D-01 0.142D-02 0.350D+00 0.686D+00
 Gap=     0.154 Goal=   None    Shift=    0.000
 RMSDP=1.41D-07 MaxDP=7.26D-06 DE=-1.49D-08 OVMax= 3.52D-05

 Cycle  11  Pass 1  IDiag  1:
 RMSU=  9.09D-08    CP:  9.37D-01  1.48D+00  8.22D-01  7.00D-01  8.10D-01
                    CP:  1.02D+00  1.14D+00  8.76D-01  1.09D+00  8.90D-01
 E= -1374.17143739347     Delta-E=       -0.000000003573 Rises=F Damp=F
 DIIS: error= 5.21D-07 at cycle  11 NSaved=  11.
 NSaved=11 IEnMin=11 EnMin= -1374.17143739347     IErMin=11 ErrMin= 5.21D-07
 ErrMax= 5.21D-07  0.00D+00 EMaxC= 1.00D-01 BMatC= 2.72D-10 BMatP= 2.68D-09
 IDIUse=1 WtCom= 1.00D+00 WtEn= 0.00D+00
 Coeff-Com: -0.258D-04 0.467D-04 0.313D-03 0.712D-03 0.153D-02-0.347D-03
 Coeff-Com: -0.228D-01-0.255D-01 0.461D-01 0.285D+00 0.715D+00
 Coeff:     -0.258D-04 0.467D-04 0.313D-03 0.712D-03 0.153D-02-0.347D-03
 Coeff:     -0.228D-01-0.255D-01 0.461D-01 0.285D+00 0.715D+00
 Gap=     0.154 Goal=   None    Shift=    0.000
 RMSDP=4.90D-08 MaxDP=2.09D-06 DE=-3.57D-09 OVMax= 9.55D-06

 Cycle  12  Pass 1  IDiag  1:
 RMSU=  2.85D-08    CP:  9.37D-01  1.48D+00  8.22D-01  7.00D-01  8.10D-01
                    CP:  1.02D+00  1.14D+00  8.82D-01  1.12D+00  9.89D-01
                    CP:  9.21D-01
 E= -1374.17143739383     Delta-E=       -0.000000000362 Rises=F Damp=F
 DIIS: error= 1.76D-07 at cycle  12 NSaved=  12.
 NSaved=12 IEnMin=12 EnMin= -1374.17143739383     IErMin=12 ErrMin= 1.76D-07
 ErrMax= 1.76D-07  0.00D+00 EMaxC= 1.00D-01 BMatC= 2.09D-11 BMatP= 2.72D-10
 IDIUse=1 WtCom= 1.00D+00 WtEn= 0.00D+00
 Coeff-Com: -0.645D-05 0.992D-05 0.799D-04 0.194D-03 0.486D-03 0.348D-03
 Coeff-Com: -0.481D-02-0.646D-02-0.159D-01 0.479D-01 0.256D+00 0.722D+00
 Coeff:     -0.645D-05 0.992D-05 0.799D-04 0.194D-03 0.486D-03 0.348D-03
 Coeff:     -0.481D-02-0.646D-02-0.159D-01 0.479D-01 0.256D+00 0.722D+00
 Gap=     0.154 Goal=   None    Shift=    0.000
 RMSDP=1.20D-08 MaxDP=6.93D-07 DE=-3.62D-10 OVMax= 3.20D-06

 Cycle  13  Pass 1  IDiag  1:
 RMSU=  8.41D-09    CP:  9.37D-01  1.48D+00  8.22D-01  7.00D-01  8.10D-01
                    CP:  1.02D+00  1.14D+00  8.82D-01  1.13D+00  1.00D+00
                    CP:  9.92D-01  9.60D-01
 E= -1374.17143739386     Delta-E=       -0.000000000025 Rises=F Damp=F
 DIIS: error= 4.83D-08 at cycle  13 NSaved=  13.
 NSaved=13 IEnMin=13 EnMin= -1374.17143739386     IErMin=13 ErrMin= 4.83D-08
 ErrMax= 4.83D-08  0.00D+00 EMaxC= 1.00D-01 BMatC= 2.51D-12 BMatP= 2.09D-11
 IDIUse=1 WtCom= 1.00D+00 WtEn= 0.00D+00
 Coeff-Com:  0.107D-05-0.236D-05-0.110D-04-0.231D-04-0.244D-04 0.161D-03
 Coeff-Com:  0.822D-03 0.144D-02-0.121D-01-0.160D-01-0.178D-01 0.193D+00
 Coeff-Com:  0.851D+00
 Coeff:      0.107D-05-0.236D-05-0.110D-04-0.231D-04-0.244D-04 0.161D-03
 Coeff:      0.822D-03 0.144D-02-0.121D-01-0.160D-01-0.178D-01 0.193D+00
 Coeff:      0.851D+00
 Gap=     0.154 Goal=   None    Shift=    0.000
 RMSDP=5.99D-09 MaxDP=1.75D-07 DE=-2.46D-11 OVMax= 1.28D-06

 Error on total polarization charges =  0.01608
 SCF Done:  E(RM062X) =  -1374.17143739     A.U. after   13 cycles
            NFock= 13  Conv=0.60D-08     -V/T= 2.0063
 KE= 1.365508387452D+03 PE=-8.895305981321D+03 EE= 3.308052473745D+03
 Leave Link  502 at Mon Jan 31 14:41:08 2022, MaxMem= 14763950080 cpu:            1734.4 elap:             114.3
 (Enter /lustre1/prg/gaussian/bin/G16_C01_Linda_AVX/g16/l801.exe)
 DoSCS=F DFT=T ScalE2(SS,OS)=  1.000000  1.000000
 ExpMin= 9.54D-02 ExpMax= 1.47D+04 ExpMxC= 5.03D+02 IAcc=3 IRadAn=         5 AccDes= 0.00D+00
 HarFok:  IExCor=  205 AccDes= 0.00D+00 IRadAn=         5 IDoV=-2 UseB2=F ITyADJ=14
 ICtDFT= 12500011 ScaDFX=  1.000000  1.000000  1.000000  1.000000
 GSVD:  LWork=       -1280 too small for GESVD, short by        5600 words or        5600 for optimal perf.
 Largest valence mixing into a core orbital is  7.99D-05
 Largest core mixing into a valence orbital is  5.12D-05
 Range of M.O.s used for correlation:    33   543
 NBasis=   543 NAE=   109 NBE=   109 NFC=    32 NFV=     0
 NROrb=    511 NOA=    77 NOB=    77 NVA=   434 NVB=   434

 **** Warning!!: The largest alpha MO coefficient is  0.13889775D+02

 Leave Link  801 at Mon Jan 31 14:41:09 2022, MaxMem= 14763950080 cpu:               4.4 elap:               0.3
@@@@@@@@@@@@@@@@@@@@@@@@@@@@@@@@@@@@@@@@@@@@@@@@@@@@@@@@@@@
@    WARNING: REMOTE HOST IDENTIFICATION HAS CHANGED!     @
@@@@@@@@@@@@@@@@@@@@@@@@@@@@@@@@@@@@@@@@@@@@@@@@@@@@@@@@@@@
IT IS POSSIBLE THAT SOMEONE IS DOING SOMETHING NASTY!
Someone could be eavesdropping on you right now (man-in-the-middle attack)!
It is also possible that a host key has just been changed.
The fingerprint for the ECDSA key sent by the remote host is
SHA256:PvcO3x9Vskcv12bdVwmfJnx4zmhF4mpj2UHIzw8JXVA.
[...]
 Alpha virt. eigenvalues --    1.13147   1.13842   1.15849   1.16342   1.17370
 Alpha virt. eigenvalues --    1.18767   1.20125   1.22192   1.22279   1.24378
 Alpha virt. eigenvalues --    1.28256   1.30895   1.31403   1.32203   1.32756
 Alpha virt. eigenvalues --    1.33389   1.34136   1.34905   1.35406   1.35671
 Alpha virt. eigenvalues --    1.35824   1.36305   1.36454   1.37646   1.38805
 Alpha virt. eigenvalues --    1.39329   1.40179   1.40355   1.41378   1.41770
 Alpha virt. eigenvalues --    1.42327   1.43626   1.45620   1.47736   1.48609
 Alpha virt. eigenvalues --    1.49011   1.50229   1.50456   1.50883   1.51490
 Alpha virt. eigenvalues --    1.51915   1.52398   1.52544   1.52776   1.53211
 Alpha virt. eigenvalues --    1.53508   1.54562   1.54644   1.54815   1.55505
 Alpha virt. eigenvalues --    1.56184   1.57663   1.58835   1.59375   1.61290
 Alpha virt. eigenvalues --    1.61674   1.62291   1.62407   1.62803   1.63297
 Alpha virt. eigenvalues --    1.63634   1.64386   1.64479   1.64550   1.64744
 Alpha virt. eigenvalues --    1.64989   1.65576   1.66097   1.66370   1.66482
 Alpha virt. eigenvalues --    1.66848   1.67496   1.67603   1.67969   1.68593
 Alpha virt. eigenvalues --    1.68991   1.69662   1.69871   1.70254   1.70871
 Alpha virt. eigenvalues --    1.71388   1.71491   1.72459   1.73710   1.74250
 Alpha virt. eigenvalues --    1.74745   1.75334   1.75575   1.76815   1.77181
 Alpha virt. eigenvalues --    1.78020   1.78439   1.78716   1.78958   1.79415
 Alpha virt. eigenvalues --    1.79874   1.80288   1.80590   1.81020   1.81459
 Alpha virt. eigenvalues --    1.82315   1.82580   1.83366   1.84082   1.84605
 Alpha virt. eigenvalues --    1.85376   1.85783   1.86522   1.87188   1.87260
 Alpha virt. eigenvalues --    1.87693   1.87905   1.88390   1.88701   1.88993
 Alpha virt. eigenvalues --    1.89112   1.89532   1.90360   1.90496   1.90970
 Alpha virt. eigenvalues --    1.91153   1.92050   1.92724   1.94250   1.94747
 Alpha virt. eigenvalues --    1.95656   1.97395   1.97883   1.97967   1.99403
 Alpha virt. eigenvalues --    1.99810   2.00066   2.00326   2.00655   2.01847
 Alpha virt. eigenvalues --    2.02374   2.02607   2.03220   2.03605   2.03772
 Alpha virt. eigenvalues --    2.03969   2.06926   2.08152   2.10452   2.10641
 Alpha virt. eigenvalues --    2.12235   2.13537   2.15539   2.15590   2.16155
 Alpha virt. eigenvalues --    2.18028   2.18680   2.20959   2.22204   2.22534
 Alpha virt. eigenvalues --    2.23161   2.23262   2.26363   2.27817   2.29153
 Alpha virt. eigenvalues --    2.29884   2.30621   2.31693   2.31946   2.33495
 Alpha virt. eigenvalues --    2.35187   2.35717   2.37559   2.39757   2.40067
 Alpha virt. eigenvalues --    2.40262   2.41047   2.41873   2.42983   2.43533
 Alpha virt. eigenvalues --    2.45348   2.45622   2.46353   2.46641   2.46792
 Alpha virt. eigenvalues --    2.47552   2.49087   2.49229   2.49340   2.50787
 Alpha virt. eigenvalues --    2.52276   2.55634   2.56042   2.57997   2.64306
 Alpha virt. eigenvalues --    2.65576   2.65975   2.66094   2.69023   2.69738
 Alpha virt. eigenvalues --    2.71553   2.71924   2.73042   2.73147   2.74056
 Alpha virt. eigenvalues --    2.75966   2.76388   2.82003   2.83438   2.85453
 Alpha virt. eigenvalues --    2.85852   2.88851   2.89195   2.92688   2.95625
 Alpha virt. eigenvalues --    2.95886   3.00243   3.09611   3.11651   3.14645
 Alpha virt. eigenvalues --    3.17142   3.56668   3.59469   3.59740   3.68024
 Alpha virt. eigenvalues --    3.68302   3.71612   3.74596   3.75290   3.90485
 Alpha virt. eigenvalues --    4.01573   4.05584   4.13327   4.14211
          Condensed to atoms (all electrons):
 Mulliken charges:
               1
     1  N   -0.180754
     2  C    0.113429
     3  C   -0.029298
     4  C   -0.079341
     5  C    0.118286
     6  C    0.001740
     7  C    0.007493
     8  C    0.004978
     9  C    0.006233
    10  C   -0.002897
    11  C   -0.091442
    12  C    0.113878
    13  C    0.112544
    14  C   -0.071573
    15  C   -0.031385
    16  C    0.112914
    17  N   -0.176942
    18  F   -0.238849
    19  B    0.178589
    20  F   -0.232307
    21  H    0.066630
    22  H    0.034164
    23  H    0.023202
    24  H    0.030638
    25  H    0.030418
    26  H    0.030629
    27  H    0.026027
    28  H    0.033692
    29  H    0.066051
    30  C    0.011551
    31  C   -0.041498
    32  C   -0.045825
    33  C    0.010217
    34  C    0.009474
    35  C   -0.008149
    36  H    0.011230
    37  H    0.010072
    38  H    0.018558
    39  H    0.018957
    40  H    0.017216
    41  C    0.012592
    42  C   -0.041911
    43  C   -0.046230
    44  C    0.010092
    45  C    0.009523
    46  C   -0.008523
    47  H    0.011386
    48  H    0.010045
    49  H    0.018543
    50  H    0.018829
    51  H    0.017104
 Sum of Mulliken charges =  -0.00000
 Mulliken charges with hydrogens summed into heavy atoms:
               1
     1  N   -0.180754
     2  C    0.180059
     3  C   -0.029298
     4  C   -0.045177
     5  C    0.118286
     6  C    0.024942
     7  C    0.038131
     8  C    0.035396
     9  C    0.036862
    10  C    0.023130
    11  C   -0.091442
    12  C    0.113878
    13  C    0.112544
    14  C   -0.037881
    15  C   -0.031385
    16  C    0.178965
    17  N   -0.176942
    18  F   -0.238849
    19  B    0.178589
    20  F   -0.232307
    30  C    0.011551
    31  C   -0.030268
    32  C   -0.035753
    33  C    0.028774
    34  C    0.028430
    35  C    0.009067
    41  C    0.012592
    42  C   -0.030525
    43  C   -0.036185
    44  C    0.028635
    45  C    0.028352
    46  C    0.008581
 Electronic spatial extent (au):  <R**2>=         179724.5474
 Charge=             -0.0000 electrons
 Dipole moment (field-independent basis, Debye):
    X=              1.1514    Y=              7.1226    Z=              1.4681  Tot=              7.3629
 Quadrupole moment (field-independent basis, Debye-Ang):
   XX=           -137.5764   YY=           -274.4030   ZZ=           -177.8830
   XY=             71.4535   XZ=             -4.5250   YZ=            -15.5393
 Traceless Quadrupole moment (field-independent basis, Debye-Ang):
   XX=             59.0444   YY=            -77.7822   ZZ=             18.7378
   XY=             71.4535   XZ=             -4.5250   YZ=            -15.5393
 Octapole moment (field-independent basis, Debye-Ang**2):
  XXX=          -5351.5084  YYY=           5411.7375  ZZZ=             20.5617  XYY=          -3113.8592
  XXY=           2048.7848  XXZ=           -328.2532  XZZ=          -2121.4530  YZZ=           1434.7342
  YYZ=            166.5365  XYZ=             23.4379
 Hexadecapole moment (field-independent basis, Debye-Ang**3):
 XXXX=        -140256.4621 YYYY=         -87021.8894 ZZZZ=          -8714.9877 XXXY=          54268.7257
 XXXZ=          -3551.1726 YYYX=          62659.4166 YYYZ=          -1742.8704 ZZZX=           4167.1102
 ZZZY=           -197.7839 XXYY=         -48683.3810 XXZZ=         -27682.5034 YYZZ=         -13763.5553
 XXYZ=           2881.5086 YYXZ=           1299.4453 ZZXY=          17132.7028
 N-N= 2.846263530846D+03 E-N=-8.892650723766D+03  KE= 1.365464056445D+03

 **********************************************************************

            Population analysis using the CI Rho(1) Density.

 **********************************************************************

          Condensed to atoms (all electrons):
 Mulliken charges:
               1
     1  N   -0.181292
     2  C    0.112719
     3  C    0.051852
     4  C   -0.188848
     5  C    0.239897
     6  C   -0.019313
     7  C    0.006096
     8  C   -0.015239
     9  C    0.005034
    10  C   -0.024865
    11  C   -0.096766
    12  C   -0.162488
    13  C    0.233823
    14  C   -0.179351
    15  C    0.050974
    16  C    0.113700
    17  N   -0.177307
    18  F   -0.239741
    19  B    0.171530
    20  F   -0.234423
    21  H    0.066190
    22  H    0.032929
    23  H    0.023309
    24  H    0.030267
    25  H    0.030288
    26  H    0.030271
    27  H    0.025962
    28  H    0.032269
    29  H    0.065587
    30  C    0.028087
    31  C   -0.024128
    32  C   -0.023239
    33  C    0.013142
    34  C    0.009947
    35  C    0.018335
    36  H    0.011268
    37  H    0.010072
    38  H    0.018555
    39  H    0.018948
    40  H    0.017346
    41  C    0.029029
    42  C   -0.024244
    43  C   -0.023455
    44  C    0.013050
    45  C    0.010007
    46  C    0.018195
    47  H    0.011361
    48  H    0.010059
    49  H    0.018542
    50  H    0.018822
    51  H    0.017237
 Sum of Mulliken charges =  -0.00000
 Mulliken charges with hydrogens summed into heavy atoms:
               1
     1  N   -0.181292
     2  C    0.178909
     3  C    0.051852
     4  C   -0.155919
     5  C    0.239897
     6  C    0.003996
     7  C    0.036363
     8  C    0.015049
     9  C    0.035306
    10  C    0.001097
    11  C   -0.096766
    12  C   -0.162488
    13  C    0.233823
    14  C   -0.147082
    15  C    0.050974
    16  C    0.179287
    17  N   -0.177307
    18  F   -0.239741
    19  B    0.171530
    20  F   -0.234423
    30  C    0.028087
    31  C   -0.012861
    32  C   -0.013167
    33  C    0.031697
    34  C    0.028896
    35  C    0.035681
    41  C    0.029029
    42  C   -0.012883
    43  C   -0.013396
    44  C    0.031592
    45  C    0.028829
    46  C    0.035432
 Electronic spatial extent (au):  <R**2>=         179650.6302
 Charge=             -0.0000 electrons
 Dipole moment (field-independent basis, Debye):
    X=              1.4334    Y=              3.2622    Z=              1.8001  Tot=              3.9921
 Quadrupole moment (field-independent basis, Debye-Ang):
   XX=           -111.7703   YY=           -217.2162   ZZ=           -161.4547
   XY=             23.7845   XZ=            -18.4236   YZ=            -18.7147
 Traceless Quadrupole moment (field-independent basis, Debye-Ang):
   XX=             51.7101   YY=            -53.7358   ZZ=              2.0257
   XY=             23.7845   XZ=            -18.4236   YZ=            -18.7147
 Octapole moment (field-independent basis, Debye-Ang**2):
  XXX=          -4538.2442  YYY=           4757.6649  ZZZ=             33.6023  XYY=          -2423.0135
  XXY=           1283.9527  XXZ=           -707.9507  XZZ=          -1931.4248  YZZ=           1282.6096
  YYZ=            197.5126  XYZ=            148.3346
 Hexadecapole moment (field-independent basis, Debye-Ang**3):
 XXXX=        -121087.7070 YYYY=         -80238.7719 ZZZZ=          -8347.6801 XXXY=          40612.8674
 XXXZ=         -11053.2381 YYYX=          54820.5298 YYYZ=          -2049.5269 ZZZX=           3963.4870
 ZZZY=           -321.0133 XXYY=         -38705.8701 XXZZ=         -25115.0277 YYZZ=         -12359.0269
 XXYZ=           6314.2097 YYXZ=            180.2281 ZZXY=          15377.9838
 N-N= 2.846263530846D+03 E-N=-8.893409004350D+03  KE= 1.365556902867D+03

 **********************************************************************

            Population analysis using the CI Density.

 **********************************************************************

          Condensed to atoms (all electrons):
 Mulliken charges:
               1
     1  N   -0.182760
     2  C    0.113015
     3  C   -0.008089
     4  C   -0.111929
     5  C    0.152597
     6  C   -0.008962
     7  C    0.002616
     8  C   -0.010335
     9  C    0.001527
    10  C   -0.014320
    11  C   -0.086461
    12  C    0.045211
    13  C    0.146024
    14  C   -0.103416
    15  C   -0.009871
    16  C    0.113167
    17  N   -0.178829
    18  F   -0.239740
    19  B    0.172284
    20  F   -0.233921
    21  H    0.065322
    22  H    0.023006
    23  H    0.012285
    24  H    0.022793
    25  H    0.021404
    26  H    0.022789
    27  H    0.015282
    28  H    0.022460
    29  H    0.064952
    30  C    0.008014
    31  C   -0.029079
    32  C   -0.030659
    33  C    0.013111
    34  C    0.010878
    35  C    0.005726
    36  H    0.018076
    37  H    0.016955
    38  H    0.023808
    39  H    0.024054
    40  H    0.024741
    41  C    0.008832
    42  C   -0.029213
    43  C   -0.030908
    44  C    0.013047
    45  C    0.010966
    46  C    0.005534
    47  H    0.018288
    48  H    0.017074
    49  H    0.023891
    50  H    0.024016
    51  H    0.024747
 Sum of Mulliken charges =  -0.00000
 Mulliken charges with hydrogens summed into heavy atoms:
               1
     1  N   -0.182760
     2  C    0.178338
     3  C   -0.008089
     4  C   -0.088923
     5  C    0.152597
     6  C    0.003323
     7  C    0.025409
     8  C    0.011070
     9  C    0.024316
    10  C    0.000962
    11  C   -0.086461
    12  C    0.045211
    13  C    0.146024
    14  C   -0.080956
    15  C   -0.009871
    16  C    0.178118
    17  N   -0.178829
    18  F   -0.239740
    19  B    0.172284
    20  F   -0.233921
    30  C    0.008014
    31  C   -0.011004
    32  C   -0.013704
    33  C    0.036918
    34  C    0.034932
    35  C    0.030467
    41  C    0.008832
    42  C   -0.010925
    43  C   -0.013834
    44  C    0.036938
    45  C    0.034982
    46  C    0.030281
 Electronic spatial extent (au):  <R**2>=         179667.1177
 Charge=              0.0000 electrons
 Dipole moment (field-independent basis, Debye):
    X=              1.3952    Y=              4.1714    Z=              1.7323  Tot=              4.7273
 Quadrupole moment (field-independent basis, Debye-Ang):
   XX=           -115.6740   YY=           -233.4948   ZZ=           -163.4486
   XY=             34.8040   XZ=            -17.1177   YZ=            -18.2520
 Traceless Quadrupole moment (field-independent basis, Debye-Ang):
   XX=             55.1985   YY=            -62.6224   ZZ=              7.4239
   XY=             34.8040   XZ=            -17.1177   YZ=            -18.2520
 Octapole moment (field-independent basis, Debye-Ang**2):
  XXX=          -4659.7984  YYY=           4956.2286  ZZZ=             34.9192  XYY=          -2616.7035
  XXY=           1442.6943  XXZ=           -667.4079  XZZ=          -1955.6469  YZZ=           1301.2315
  YYZ=            194.3582  XYZ=            133.3622
 Hexadecapole moment (field-independent basis, Debye-Ang**3):
 XXXX=        -123770.2706 YYYY=         -82287.4724 ZZZZ=          -8305.8143 XXXY=          43115.7174
 XXXZ=         -10311.5730 YYYX=          57166.8294 YYYZ=          -2031.1441 ZZZX=           3945.1610
 ZZZY=           -335.4643 XXYY=         -41216.1414 XXZZ=         -25378.0481 YYZZ=         -12516.9913
 XXYZ=           5894.0845 YYXZ=            317.9728 ZZXY=          15604.9933
 N-N= 2.846263530846D+03 E-N=-8.893190364713D+03  KE= 1.365562589259D+03
 No NMR shielding tensors so no spin-rotation constants.
 Leave Link  601 at Mon Jan 31 17:54:15 2022, MaxMem= 14763950080 cpu:              11.4 elap:               0.9
 (Enter /lustre1/prg/gaussian/bin/G16_C01_Linda_AVX/g16/l9999.exe)
 Electronic transition elements 
                 1             2             3             4             5 
      1  -0.137409D+04 -0.137405D+04 -0.137404D+04 -0.137403D+04 -0.137402D+04
      2   0.297835D+01 -0.115006D+00  0.136884D+01 -0.199196D-01 -0.210723D+00
      3   0.390990D-01  0.171495D+01  0.336667D-01  0.165659D+01  0.465533D-01
      4  -0.272053D+01  0.115004D-02 -0.125136D+01 -0.420828D-01 -0.206732D+00
      5  -0.249954D+00  0.128691D-01 -0.185646D+00  0.313154D-02  0.380779D-01
      6  -0.331716D-02 -0.203719D+00 -0.449681D-02 -0.233182D+00 -0.710128D-02
      7   0.227217D+00 -0.158202D-02  0.168993D+00  0.627216D-02  0.316991D-01
      8  -0.302382D+01 -0.957896D-02 -0.277054D+01 -0.183134D+00 -0.390847D+00
      9  -0.500774D+01  0.501611D-02 -0.362917D+01 -0.186783D+00 -0.683617D+00
     10  -0.339571D+01 -0.433989D+01 -0.310208D+01 -0.506688D+01 -0.160216D+00
     11  -0.113274D+02  0.188007D+01 -0.830305D+01  0.678026D+00  0.166042D+01
     12   0.120077D+00  0.562235D+01  0.158551D+00  0.547831D+01  0.143445D+00
     13   0.989357D-01  0.117226D+01  0.386130D-01  0.558872D+00  0.599830D-02
     14   0.421490D+01 -0.470610D+01  0.289895D+01 -0.522524D+01 -0.333261D+00
     15   0.509817D+01 -0.130202D+01  0.375971D+01 -0.466175D+00  0.708982D+00
     16  -0.389494D+01  0.176063D-01 -0.273714D+01 -0.141238D+00 -0.463588D+00
                 6 
      1  -0.137401D+04
      2   0.839152D-01
      3   0.244201D+00
      4  -0.106787D+00
      5  -0.166713D-01
      6  -0.430407D-01
      7   0.188243D-01
      8  -0.440114D+00
      9  -0.423470D+00
     10  -0.143661D+01
     11  -0.685156D+00
     12   0.153659D+01
     13   0.513407D-01
     14  -0.846217D+00
     15   0.360805D+00
     16  -0.184416D+00
 Unable to Open any file for archive entry.
 1\1\VILNIUS-FIZIKA114\FOpt\RM062X TD-FC\CC-pVDZ\C27H19B1F2N2\TOLISTE\3
 1-Jan-2022\0\\#p m062x cc-pvdz scrf=(cpcm,solvent=DiMethylSulfoxide) t
 d=(nstate=6,root=1) opt=tight nosymm density=all int=ultrafine fchk\\B
 DP-PP-phenyl, optimized S1 in toluene\\0,1\N,12.647153735,-9.458986537
 2,-0.9669897497\C,13.6539176274,-9.8768685192,-1.7307058261\C,14.38075
 08855,-8.7585343177,-2.2355667288\C,13.7387002313,-7.6133092932,-1.723
 1513943\C,12.6721924559,-8.0473592977,-0.9169969725\C,10.5237556835,-5
 .1535704375,-0.1670221887\C,10.5085475877,-3.7622521449,-0.113879502\C
 ,11.6988587872,-3.0514718046,0.0494464679\C,12.9049395679,-3.744314682
 ,0.1634878558\C,12.9241516102,-5.1360643735,0.1096484919\C,11.73325941
 36,-5.863107136,-0.0612336813\C,11.7368770678,-7.3349892954,-0.1174746
 165\C,10.841121592,-8.081956809,0.6966814482\C,9.9775106238,-7.6779647
 548,1.7289379443\C,9.4147179759,-8.8400915301,2.2931345308\C,9.9636499
 172,-9.9373988839,1.5649016703\N,10.7928595832,-9.4901635087,0.6249886
 958\F,12.0124664687,-11.5197965175,0.1326679396\B,11.5051953693,-10.35
 38119549,-0.4365812383\F,10.6234302738,-10.6779114015,-1.4756485536\H,
 13.7999317986,-10.9387379487,-1.9154669421\H,14.0117699299,-6.57787610
 93,-1.8943195511\H,9.5923768713,-5.7033820886,-0.3125876223\H,9.561383
 1923,-3.2298419751,-0.2079527748\H,11.6861225923,-1.9619187808,0.09048
 67766\H,13.8383921909,-3.19843048,0.3051899023\H,13.8676830433,-5.6697
 385023,0.2310789046\H,9.8327889413,-6.6519474625,2.0511106684\H,9.7812
 330475,-11.0037571973,1.6765061395\C,15.5374958209,-8.8269827767,-3.11
 48312664\C,16.0921090749,-7.651728579,-3.6601699706\C,16.1324204371,-1
 0.0627892926,-3.4413496108\C,17.197781601,-7.7119106787,-4.499901395\C
 ,17.2381173762,-10.1182312303,-4.2812068849\C,17.7766407624,-8.9442884
 581,-4.8149312329\H,15.6461252829,-6.6844671408,-3.4274154577\H,15.731
 2282447,-10.9882494375,-3.0273999384\H,17.6119720436,-6.7921663711,-4.
 9138572107\H,17.6857325898,-11.0831736543,-4.5203762593\H,18.644391113
 4,-8.9896882196,-5.4735826259\C,8.4695614296,-8.9431713661,3.393920048
 7\C,7.8975552835,-7.7845603274,3.9565590803\C,8.1046641606,-10.1969937
 992,3.9254607386\C,6.9960349487,-7.8781519987,5.0100487637\C,7.2027184
 777,-10.2858393292,4.9787303947\C,6.6438182008,-9.1279980149,5.5266560
 121\H,8.1578091734,-6.8042035281,3.556562475\H,8.5376522439,-11.110035
 3961,3.5159004577\H,6.5619160502,-6.9710546502,5.4314423831\H,6.934158
 3353,-11.2642629972,5.3777562622\H,5.9360382851,-9.1996050104,6.352953
 1428\\Version=ES64L-G16RevC.01\HF=-1374.1719281\RMSD=6.921e-09\RMSF=1.
 242e-06\Dipole=0.5489118,1.6411362,0.6815376\Quadrupole=41.0387452,-46
 .5581966,5.5194514,25.8758924,-12.7265855,-13.5699091\PG=C01 [X(C27H19
 B1F2N2)]\\@
 The archive entry for this job was punched.


 BE NOT THE FIRST BY WHOM THE NEW ARE TRIED,
 NOR YET THE THE LAST TO LAY THE OLD ASIDE.

                          -- ALEXANDER POPE
 Job cpu time:       0 days  0 hours  6 minutes 25.6 seconds.
 Elapsed time:       0 days  3 hours 12 minutes 43.9 seconds.
 File lengths (MBytes):  RWF=   1885 Int=      0 D2E=      0 Chk=     92 Scr=      1
 Normal termination of Gaussian 16 at Mon Jan 31 17:54:18 2022.
