 Entering Gaussian System, Link 0=g09
 Initial command:
 /scratch/prg/gaussian/bin/g09/l1.exe "/scratch/home/stetol/gaussian/bodipy/v3/7-ppp/ppp-tolu-optS1/Gau-14856.inp" -scrdir="/scratch/home/stetol/gaussian/bodipy/v3/7-ppp/ppp-tolu-optS1/"
 Default is to use a total of  12 processors:
                               12 via shared-memory
                                1 via Linda
 Entering Link 1 = /scratch/prg/gaussian/bin/g09/l1.exe PID=     14857.
  
 Copyright (c) 1988,1990,1992,1993,1995,1998,2003,2009,2013,
            Gaussian, Inc.  All Rights Reserved.
  
 This is part of the Gaussian(R) 09 program.  It is based on
 the Gaussian(R) 03 system (copyright 2003, Gaussian, Inc.),
 the Gaussian(R) 98 system (copyright 1998, Gaussian, Inc.),
 the Gaussian(R) 94 system (copyright 1995, Gaussian, Inc.),
 the Gaussian 92(TM) system (copyright 1992, Gaussian, Inc.),
 the Gaussian 90(TM) system (copyright 1990, Gaussian, Inc.),
 the Gaussian 88(TM) system (copyright 1988, Gaussian, Inc.),
 the Gaussian 86(TM) system (copyright 1986, Carnegie Mellon
 University), and the Gaussian 82(TM) system (copyright 1983,
 Carnegie Mellon University). Gaussian is a federally registered
 trademark of Gaussian, Inc.
  
 This software contains proprietary and confidential information,
 including trade secrets, belonging to Gaussian, Inc.
  
 This software is provided under written license and may be
 used, copied, transmitted, or stored only in accord with that
 written license.
  
 The following legend is applicable only to US Government
 contracts under FAR:
  
                    RESTRICTED RIGHTS LEGEND
  
 Use, reproduction and disclosure by the US Government is
 subject to restrictions as set forth in subparagraphs (a)
 and (c) of the Commercial Computer Software - Restricted
 Rights clause in FAR 52.227-19.
  
 Gaussian, Inc.
 340 Quinnipiac St., Bldg. 40, Wallingford CT 06492
  
  
 ---------------------------------------------------------------
 Warning -- This program may not be used in any manner that
 competes with the business of Gaussian, Inc. or will provide
 assistance to any competitor of Gaussian, Inc.  The licensee
 of this program is prohibited from giving any competitor of
 Gaussian, Inc. access to this program.  By using this program,
 the user acknowledges that Gaussian, Inc. is engaged in the
 business of creating and licensing software in the field of
 computational chemistry and represents and warrants to the
 licensee that it is not a competitor of Gaussian, Inc. and that
 it will not use this program in any manner prohibited above.
 ---------------------------------------------------------------
  

 Cite this work as:
 Gaussian 09, Revision D.01,
 M. J. Frisch, G. W. Trucks, H. B. Schlegel, G. E. Scuseria, 
 M. A. Robb, J. R. Cheeseman, G. Scalmani, V. Barone, B. Mennucci, 
 G. A. Petersson, H. Nakatsuji, M. Caricato, X. Li, H. P. Hratchian, 
 A. F. Izmaylov, J. Bloino, G. Zheng, J. L. Sonnenberg, M. Hada, 
 M. Ehara, K. Toyota, R. Fukuda, J. Hasegawa, M. Ishida, T. Nakajima, 
 Y. Honda, O. Kitao, H. Nakai, T. Vreven, J. A. Montgomery, Jr., 
 J. E. Peralta, F. Ogliaro, M. Bearpark, J. J. Heyd, E. Brothers, 
 K. N. Kudin, V. N. Staroverov, T. Keith, R. Kobayashi, J. Normand, 
 K. Raghavachari, A. Rendell, J. C. Burant, S. S. Iyengar, J. Tomasi, 
 M. Cossi, N. Rega, J. M. Millam, M. Klene, J. E. Knox, J. B. Cross, 
 V. Bakken, C. Adamo, J. Jaramillo, R. Gomperts, R. E. Stratmann, 
 O. Yazyev, A. J. Austin, R. Cammi, C. Pomelli, J. W. Ochterski, 
 R. L. Martin, K. Morokuma, V. G. Zakrzewski, G. A. Voth, 
 P. Salvador, J. J. Dannenberg, S. Dapprich, A. D. Daniels, 
 O. Farkas, J. B. Foresman, J. V. Ortiz, J. Cioslowski, 
 and D. J. Fox, Gaussian, Inc., Wallingford CT, 2013.
 
 ******************************************
 Gaussian 09:  EM64L-G09RevD.01 24-Apr-2013
                21-Apr-2020 
 ******************************************
 %LindaWorkers=fizika31-ib.bullx,fizika51-ib.bullx
 %chk=bodipy.chk
 SetLPE:  input flags=""
 SetLPE:    new flags=" -nodelist 'fizika31-ib.bullx fizika51-ib.bullx'"
 Will use up to    2 processors via Linda.
 Default route:  MaxDisk=50000GB
 ----------------------------------------------------------------------
 #p m062x cc-pvdz scrf=(cpcm,solvent=Toluene) td=(nstate=6,root=1) opt=
 tight nosymm density=all int=ultrafine fchk
 ----------------------------------------------------------------------
 1/7=10,14=-1,18=20,19=15,26=4,38=1/1,3;
 2/9=110,12=2,15=1,17=6,18=5,40=1/2;
 3/5=16,11=9,16=1,25=1,30=1,70=2101,71=1,72=13,74=-55,75=-5/1,2,8,3;
 4//1;
 5/5=2,38=5,53=13/2;
 8/6=1,10=1,107=1,108=6/1;
 9/8=1,15=2,30=10,41=6,42=1,70=2/14;
 10/5=4,31=1/2;
 6/7=2,8=2,9=2,10=2,22=-2/1;
 7/12=6,13=5,14=1,30=1/1,2,3,16;
 1/7=10,14=-1,18=20,19=15,26=4/3(2);
 2/9=110,15=1/2;
 99//99;
 2/9=110,15=1/2;
 3/5=16,11=9,16=1,25=1,30=1,70=2105,71=1,72=13,74=-55,75=-5/1,2,8,3;
 4/5=5,16=3,69=1/1;
 5/5=2,38=5,53=13/2;
 8/6=1,10=1,107=1,108=6/1;
 9/8=1,15=2,30=10,41=6,42=1,49=4,70=2/14;
 10/5=4,31=1/2;
 7/12=6,13=5,14=1,30=1/1,2,3,16;
 1/7=10,14=-1,18=20,19=15,26=4/3(-8);
 2/9=110,15=1/2;
 6/7=2,8=2,9=2,10=2,22=-2/1;
 99//99;
 Leave Link    1 at Tue Apr 21 13:06:32 2020, MaxMem=           0 cpu:         1.5
 (Enter /scratch/prg/gaussian/bin/g09/l101.exe)
 --------------------------------------
 BODIPY-phenyl with phenyls, initial S1
 --------------------------------------
 Symbolic Z-matrix:
 Charge =  0 Multiplicity = 1
 N                     12.6136  -9.50703  -0.98092 
 C                     13.62257  -9.91003  -1.75917 
 C                     14.34778  -8.78507  -2.2505 
 C                     13.72489  -7.65706  -1.71697 
 C                     12.63797  -8.10125  -0.92084 
 C                     10.544   -5.17236  -0.09057 
 C                     10.56461  -3.77968  -0.08613 
 C                     11.77957  -3.09307  -0.08003 
 C                     12.97691  -3.81081  -0.07366 
 C                     12.96045  -5.20306  -0.07656 
 C                     11.74287  -5.90655  -0.08956 
 C                     11.7366  -7.37866  -0.09098 
 C                     10.89035  -8.12397   0.77464 
 C                     9.96371  -7.71335   1.76799 
 C                     9.42981  -8.86258   2.35091 
 C                     10.03358  -9.9662    1.68178 
 N                     10.88883  -9.53312   0.75032 
 F                     12.18226  -11.52487   0.27954 
 B                     11.56755  -10.42059  -0.31338 
 F                     10.6251  -10.86396  -1.25313 
 H                     13.80403  -10.96843  -1.93915 
 H                     14.02755  -6.62174  -1.84496 
 H                     9.58979  -5.70022  -0.06434 
 H                     9.62405  -3.22773  -0.07781 
 H                     11.79347  -2.00275  -0.07782 
 H                     13.9315  -3.28344  -0.07373 
 H                     13.89961  -5.75868  -0.09051 
 H                     9.71801  -6.68581   2.01793 
 H                     9.85701  -11.03052   1.82925 
 C                     15.57299  -8.81048  -3.18313 
 C                     16.87774  -8.82239  -2.66178 
 C                     15.41789  -8.82239  -4.5796 
 C                     17.98688  -8.84538  -3.50565 
 C                     16.52663  -8.84538  -5.42399 
 C                     17.81657  -8.85699  -4.89095 
 H                     17.02148  -8.81353  -1.5858 
 H                     14.41903  -8.81353  -5.00466 
 H                     18.98617  -8.85425  -3.07981 
 H                     16.38225  -8.85425  -6.5006 
 H                     18.68058  -8.8749   -5.54864 
 C                     8.39501  -8.92593   3.48967 
 C                     7.01764  -8.95566   3.21347 
 C                     8.80141  -8.95566   4.8344 
 C                     6.0808   -9.01299   4.24394 
 C                     7.86505  -9.01299   5.8653 
 C                     6.50011  -9.04194   5.57493 
 H                     6.68069  -8.93355   2.18175 
 H                     9.86057  -8.93355   5.07134 
 H                     5.02106  -9.0351    4.00631 
 H                     8.20273  -9.0351    6.89753 
 H                     5.77037  -9.08661   6.37798 
 
 NAtoms=     51 NQM=       51 NQMF=       0 NMMI=      0 NMMIF=      0
                NMic=       0 NMicF=      0.
                    Isotopes and Nuclear Properties:
 (Nuclear quadrupole moments (NQMom) in fm**2, nuclear magnetic moments (NMagM)
  in nuclear magnetons)

  Atom         1           2           3           4           5           6           7           8           9          10
 IAtWgt=          14          12          12          12          12          12          12          12          12          12
 AtmWgt=  14.0030740  12.0000000  12.0000000  12.0000000  12.0000000  12.0000000  12.0000000  12.0000000  12.0000000  12.0000000
 NucSpn=           2           0           0           0           0           0           0           0           0           0
 AtZEff=   0.0000000   0.0000000   0.0000000   0.0000000   0.0000000   0.0000000   0.0000000   0.0000000   0.0000000   0.0000000
 NQMom=    2.0440000   0.0000000   0.0000000   0.0000000   0.0000000   0.0000000   0.0000000   0.0000000   0.0000000   0.0000000
 NMagM=    0.4037610   0.0000000   0.0000000   0.0000000   0.0000000   0.0000000   0.0000000   0.0000000   0.0000000   0.0000000
 AtZNuc=   7.0000000   6.0000000   6.0000000   6.0000000   6.0000000   6.0000000   6.0000000   6.0000000   6.0000000   6.0000000

  Atom        11          12          13          14          15          16          17          18          19          20
 IAtWgt=          12          12          12          12          12          12          14          19          11          19
 AtmWgt=  12.0000000  12.0000000  12.0000000  12.0000000  12.0000000  12.0000000  14.0030740  18.9984033  11.0093053  18.9984033
 NucSpn=           0           0           0           0           0           0           2           1           3           1
 AtZEff=   0.0000000   0.0000000   0.0000000   0.0000000   0.0000000   0.0000000   0.0000000   0.0000000   0.0000000   0.0000000
 NQMom=    0.0000000   0.0000000   0.0000000   0.0000000   0.0000000   0.0000000   2.0440000   0.0000000   4.0590000   0.0000000
 NMagM=    0.0000000   0.0000000   0.0000000   0.0000000   0.0000000   0.0000000   0.4037610   2.6288670   2.6886370   2.6288670
 AtZNuc=   6.0000000   6.0000000   6.0000000   6.0000000   6.0000000   6.0000000   7.0000000   9.0000000   5.0000000   9.0000000

  Atom        21          22          23          24          25          26          27          28          29          30
 IAtWgt=           1           1           1           1           1           1           1           1           1          12
 AtmWgt=   1.0078250   1.0078250   1.0078250   1.0078250   1.0078250   1.0078250   1.0078250   1.0078250   1.0078250  12.0000000
 NucSpn=           1           1           1           1           1           1           1           1           1           0
 AtZEff=   0.0000000   0.0000000   0.0000000   0.0000000   0.0000000   0.0000000   0.0000000   0.0000000   0.0000000   0.0000000
 NQMom=    0.0000000   0.0000000   0.0000000   0.0000000   0.0000000   0.0000000   0.0000000   0.0000000   0.0000000   0.0000000
 NMagM=    2.7928460   2.7928460   2.7928460   2.7928460   2.7928460   2.7928460   2.7928460   2.7928460   2.7928460   0.0000000
 AtZNuc=   1.0000000   1.0000000   1.0000000   1.0000000   1.0000000   1.0000000   1.0000000   1.0000000   1.0000000   6.0000000

  Atom        31          32          33          34          35          36          37          38          39          40
 IAtWgt=          12          12          12          12          12           1           1           1           1           1
 AtmWgt=  12.0000000  12.0000000  12.0000000  12.0000000  12.0000000   1.0078250   1.0078250   1.0078250   1.0078250   1.0078250
 NucSpn=           0           0           0           0           0           1           1           1           1           1
 AtZEff=   0.0000000   0.0000000   0.0000000   0.0000000   0.0000000   0.0000000   0.0000000   0.0000000   0.0000000   0.0000000
 NQMom=    0.0000000   0.0000000   0.0000000   0.0000000   0.0000000   0.0000000   0.0000000   0.0000000   0.0000000   0.0000000
 NMagM=    0.0000000   0.0000000   0.0000000   0.0000000   0.0000000   2.7928460   2.7928460   2.7928460   2.7928460   2.7928460
 AtZNuc=   6.0000000   6.0000000   6.0000000   6.0000000   6.0000000   1.0000000   1.0000000   1.0000000   1.0000000   1.0000000

  Atom        41          42          43          44          45          46          47          48          49          50
 IAtWgt=          12          12          12          12          12          12           1           1           1           1
 AtmWgt=  12.0000000  12.0000000  12.0000000  12.0000000  12.0000000  12.0000000   1.0078250   1.0078250   1.0078250   1.0078250
 NucSpn=           0           0           0           0           0           0           1           1           1           1
 AtZEff=   0.0000000   0.0000000   0.0000000   0.0000000   0.0000000   0.0000000   0.0000000   0.0000000   0.0000000   0.0000000
 NQMom=    0.0000000   0.0000000   0.0000000   0.0000000   0.0000000   0.0000000   0.0000000   0.0000000   0.0000000   0.0000000
 NMagM=    0.0000000   0.0000000   0.0000000   0.0000000   0.0000000   0.0000000   2.7928460   2.7928460   2.7928460   2.7928460
 AtZNuc=   6.0000000   6.0000000   6.0000000   6.0000000   6.0000000   6.0000000   1.0000000   1.0000000   1.0000000   1.0000000

  Atom        51
 IAtWgt=           1
 AtmWgt=   1.0078250
 NucSpn=           1
 AtZEff=   0.0000000
 NQMom=    0.0000000
 NMagM=    2.7928460
 AtZNuc=   1.0000000
 Leave Link  101 at Tue Apr 21 13:06:32 2020, MaxMem= 12079595520 cpu:         6.3
 (Enter /scratch/prg/gaussian/bin/g09/l103.exe)

 GradGradGradGradGradGradGradGradGradGradGradGradGradGradGradGradGradGrad
 Berny optimization.
 Initialization pass.
                           ----------------------------
                           !    Initial Parameters    !
                           ! (Angstroms and Degrees)  !
 --------------------------                            --------------------------
 ! Name  Definition              Value          Derivative Info.                !
 --------------------------------------------------------------------------------
 ! R1    R(1,2)                  1.3365         estimate D2E/DX2                !
 ! R2    R(1,5)                  1.4073         estimate D2E/DX2                !
 ! R3    R(1,19)                 1.5409         estimate D2E/DX2                !
 ! R4    R(2,3)                  1.4258         estimate D2E/DX2                !
 ! R5    R(2,21)                 1.0888         estimate D2E/DX2                !
 ! R6    R(3,4)                  1.3947         estimate D2E/DX2                !
 ! R7    R(3,30)                 1.54           estimate D2E/DX2                !
 ! R8    R(4,5)                  1.4186         estimate D2E/DX2                !
 ! R9    R(4,22)                 1.0862         estimate D2E/DX2                !
 ! R10   R(5,12)                 1.4224         estimate D2E/DX2                !
 ! R11   R(6,7)                  1.3928         estimate D2E/DX2                !
 ! R12   R(6,11)                 1.4058         estimate D2E/DX2                !
 ! R13   R(6,23)                 1.0908         estimate D2E/DX2                !
 ! R14   R(7,8)                  1.3956         estimate D2E/DX2                !
 ! R15   R(7,24)                 1.0906         estimate D2E/DX2                !
 ! R16   R(8,9)                  1.396          estimate D2E/DX2                !
 ! R17   R(8,25)                 1.0904         estimate D2E/DX2                !
 ! R18   R(9,10)                 1.3923         estimate D2E/DX2                !
 ! R19   R(9,26)                 1.0906         estimate D2E/DX2                !
 ! R20   R(10,11)                1.4063         estimate D2E/DX2                !
 ! R21   R(10,27)                1.0913         estimate D2E/DX2                !
 ! R22   R(11,12)                1.4721         estimate D2E/DX2                !
 ! R23   R(12,13)                1.4216         estimate D2E/DX2                !
 ! R24   R(13,14)                1.4192         estimate D2E/DX2                !
 ! R25   R(13,17)                1.4094         estimate D2E/DX2                !
 ! R26   R(14,15)                1.3948         estimate D2E/DX2                !
 ! R27   R(14,28)                1.0857         estimate D2E/DX2                !
 ! R28   R(15,16)                1.4249         estimate D2E/DX2                !
 ! R29   R(15,41)                1.54           estimate D2E/DX2                !
 ! R30   R(16,17)                1.3367         estimate D2E/DX2                !
 ! R31   R(16,29)                1.0889         estimate D2E/DX2                !
 ! R32   R(17,19)                1.5426         estimate D2E/DX2                !
 ! R33   R(18,19)                1.396          estimate D2E/DX2                !
 ! R34   R(19,20)                1.4028         estimate D2E/DX2                !
 ! R35   R(30,31)                1.4051         estimate D2E/DX2                !
 ! R36   R(30,32)                1.4051         estimate D2E/DX2                !
 ! R37   R(31,33)                1.3939         estimate D2E/DX2                !
 ! R38   R(31,36)                1.0856         estimate D2E/DX2                !
 ! R39   R(32,34)                1.3939         estimate D2E/DX2                !
 ! R40   R(32,37)                1.0856         estimate D2E/DX2                !
 ! R41   R(33,35)                1.3958         estimate D2E/DX2                !
 ! R42   R(33,38)                1.0863         estimate D2E/DX2                !
 ! R43   R(34,35)                1.3958         estimate D2E/DX2                !
 ! R44   R(34,39)                1.0863         estimate D2E/DX2                !
 ! R45   R(35,40)                1.086          estimate D2E/DX2                !
 ! R46   R(41,42)                1.4051         estimate D2E/DX2                !
 ! R47   R(41,43)                1.4051         estimate D2E/DX2                !
 ! R48   R(42,44)                1.3939         estimate D2E/DX2                !
 ! R49   R(42,47)                1.0856         estimate D2E/DX2                !
 ! R50   R(43,45)                1.3939         estimate D2E/DX2                !
 ! R51   R(43,48)                1.0856         estimate D2E/DX2                !
 ! R52   R(44,46)                1.3958         estimate D2E/DX2                !
 ! R53   R(44,49)                1.0863         estimate D2E/DX2                !
 ! R54   R(45,46)                1.3958         estimate D2E/DX2                !
 ! R55   R(45,50)                1.0863         estimate D2E/DX2                !
 ! R56   R(46,51)                1.086          estimate D2E/DX2                !
 ! A1    A(2,1,5)              108.241          estimate D2E/DX2                !
 ! A2    A(2,1,19)             125.8735         estimate D2E/DX2                !
 ! A3    A(5,1,19)             125.8382         estimate D2E/DX2                !
 ! A4    A(1,2,3)              110.2887         estimate D2E/DX2                !
 ! A5    A(1,2,21)             121.0103         estimate D2E/DX2                !
 ! A6    A(3,2,21)             128.6998         estimate D2E/DX2                !
 ! A7    A(2,3,4)              106.2103         estimate D2E/DX2                !
 ! A8    A(2,3,30)             126.8948         estimate D2E/DX2                !
 ! A9    A(4,3,30)             126.8948         estimate D2E/DX2                !
 ! A10   A(3,4,5)              107.6754         estimate D2E/DX2                !
 ! A11   A(3,4,22)             126.9697         estimate D2E/DX2                !
 ! A12   A(5,4,22)             125.3137         estimate D2E/DX2                !
 ! A13   A(1,5,4)              107.5832         estimate D2E/DX2                !
 ! A14   A(1,5,12)             121.4262         estimate D2E/DX2                !
 ! A15   A(4,5,12)             130.8331         estimate D2E/DX2                !
 ! A16   A(7,6,11)             120.6346         estimate D2E/DX2                !
 ! A17   A(7,6,23)             119.7839         estimate D2E/DX2                !
 ! A18   A(11,6,23)            119.5559         estimate D2E/DX2                !
 ! A19   A(6,7,8)              120.3205         estimate D2E/DX2                !
 ! A20   A(6,7,24)             119.5583         estimate D2E/DX2                !
 ! A21   A(8,7,24)             120.1186         estimate D2E/DX2                !
 ! A22   A(7,8,9)              119.5881         estimate D2E/DX2                !
 ! A23   A(7,8,25)             120.2027         estimate D2E/DX2                !
 ! A24   A(9,8,25)             120.2091         estimate D2E/DX2                !
 ! A25   A(8,9,10)             120.2622         estimate D2E/DX2                !
 ! A26   A(8,9,26)             120.1405         estimate D2E/DX2                !
 ! A27   A(10,9,26)            119.5958         estimate D2E/DX2                !
 ! A28   A(9,10,11)            120.6953         estimate D2E/DX2                !
 ! A29   A(9,10,27)            119.9312         estimate D2E/DX2                !
 ! A30   A(11,10,27)           119.3605         estimate D2E/DX2                !
 ! A31   A(6,11,10)            118.4978         estimate D2E/DX2                !
 ! A32   A(6,11,12)            121.2385         estimate D2E/DX2                !
 ! A33   A(10,11,12)           120.2618         estimate D2E/DX2                !
 ! A34   A(5,12,11)            120.3886         estimate D2E/DX2                !
 ! A35   A(5,12,13)            117.7834         estimate D2E/DX2                !
 ! A36   A(11,12,13)           121.7509         estimate D2E/DX2                !
 ! A37   A(12,13,14)           131.5443         estimate D2E/DX2                !
 ! A38   A(12,13,17)           120.9532         estimate D2E/DX2                !
 ! A39   A(14,13,17)           107.4981         estimate D2E/DX2                !
 ! A40   A(13,14,15)           107.7014         estimate D2E/DX2                !
 ! A41   A(13,14,28)           125.6452         estimate D2E/DX2                !
 ! A42   A(15,14,28)           126.6527         estimate D2E/DX2                !
 ! A43   A(14,15,16)           106.2428         estimate D2E/DX2                !
 ! A44   A(14,15,41)           126.8786         estimate D2E/DX2                !
 ! A45   A(16,15,41)           126.8786         estimate D2E/DX2                !
 ! A46   A(15,16,17)           110.3301         estimate D2E/DX2                !
 ! A47   A(15,16,29)           128.664          estimate D2E/DX2                !
 ! A48   A(17,16,29)           120.985          estimate D2E/DX2                !
 ! A49   A(13,17,16)           108.2169         estimate D2E/DX2                !
 ! A50   A(13,17,19)           125.9185         estimate D2E/DX2                !
 ! A51   A(16,17,19)           125.144          estimate D2E/DX2                !
 ! A52   A(1,19,17)            104.8517         estimate D2E/DX2                !
 ! A53   A(1,19,18)            110.7353         estimate D2E/DX2                !
 ! A54   A(1,19,20)            110.6855         estimate D2E/DX2                !
 ! A55   A(17,19,18)           110.8515         estimate D2E/DX2                !
 ! A56   A(17,19,20)           110.3745         estimate D2E/DX2                !
 ! A57   A(18,19,20)           109.2892         estimate D2E/DX2                !
 ! A58   A(3,30,31)            120.9441         estimate D2E/DX2                !
 ! A59   A(3,30,32)            120.9441         estimate D2E/DX2                !
 ! A60   A(31,30,32)           118.1119         estimate D2E/DX2                !
 ! A61   A(30,31,33)           120.9574         estimate D2E/DX2                !
 ! A62   A(30,31,36)           119.3831         estimate D2E/DX2                !
 ! A63   A(33,31,36)           119.6595         estimate D2E/DX2                !
 ! A64   A(30,32,34)           120.9574         estimate D2E/DX2                !
 ! A65   A(30,32,37)           119.3831         estimate D2E/DX2                !
 ! A66   A(34,32,37)           119.6595         estimate D2E/DX2                !
 ! A67   A(31,33,35)           120.2599         estimate D2E/DX2                !
 ! A68   A(31,33,38)           119.6574         estimate D2E/DX2                !
 ! A69   A(35,33,38)           120.0828         estimate D2E/DX2                !
 ! A70   A(32,34,35)           120.2599         estimate D2E/DX2                !
 ! A71   A(32,34,39)           119.6574         estimate D2E/DX2                !
 ! A72   A(35,34,39)           120.0828         estimate D2E/DX2                !
 ! A73   A(33,35,34)           119.4536         estimate D2E/DX2                !
 ! A74   A(33,35,40)           120.2732         estimate D2E/DX2                !
 ! A75   A(34,35,40)           120.2732         estimate D2E/DX2                !
 ! A76   A(15,41,42)           120.9441         estimate D2E/DX2                !
 ! A77   A(15,41,43)           120.9441         estimate D2E/DX2                !
 ! A78   A(42,41,43)           118.1119         estimate D2E/DX2                !
 ! A79   A(41,42,44)           120.9574         estimate D2E/DX2                !
 ! A80   A(41,42,47)           119.3831         estimate D2E/DX2                !
 ! A81   A(44,42,47)           119.6595         estimate D2E/DX2                !
 ! A82   A(41,43,45)           120.9574         estimate D2E/DX2                !
 ! A83   A(41,43,48)           119.3831         estimate D2E/DX2                !
 ! A84   A(45,43,48)           119.6595         estimate D2E/DX2                !
 ! A85   A(42,44,46)           120.2599         estimate D2E/DX2                !
 ! A86   A(42,44,49)           119.6574         estimate D2E/DX2                !
 ! A87   A(46,44,49)           120.0828         estimate D2E/DX2                !
 ! A88   A(43,45,46)           120.2599         estimate D2E/DX2                !
 ! A89   A(43,45,50)           119.6574         estimate D2E/DX2                !
 ! A90   A(46,45,50)           120.0828         estimate D2E/DX2                !
 ! A91   A(44,46,45)           119.4536         estimate D2E/DX2                !
 ! A92   A(44,46,51)           120.2732         estimate D2E/DX2                !
 ! A93   A(45,46,51)           120.2732         estimate D2E/DX2                !
 ! D1    D(5,1,2,3)             -0.369          estimate D2E/DX2                !
 ! D2    D(5,1,2,21)           179.2675         estimate D2E/DX2                !
 ! D3    D(19,1,2,3)           177.2411         estimate D2E/DX2                !
 ! D4    D(19,1,2,21)           -3.1224         estimate D2E/DX2                !
 ! D5    D(2,1,5,4)              0.2266         estimate D2E/DX2                !
 ! D6    D(2,1,5,12)          -175.678          estimate D2E/DX2                !
 ! D7    D(19,1,5,4)          -177.3846         estimate D2E/DX2                !
 ! D8    D(19,1,5,12)            6.7109         estimate D2E/DX2                !
 ! D9    D(2,1,19,17)          165.1195         estimate D2E/DX2                !
 ! D10   D(2,1,19,18)           45.5061         estimate D2E/DX2                !
 ! D11   D(2,1,19,20)          -75.8594         estimate D2E/DX2                !
 ! D12   D(5,1,19,17)          -17.6808         estimate D2E/DX2                !
 ! D13   D(5,1,19,18)         -137.2941         estimate D2E/DX2                !
 ! D14   D(5,1,19,20)          101.3404         estimate D2E/DX2                !
 ! D15   D(1,2,3,4)              0.3683         estimate D2E/DX2                !
 ! D16   D(1,2,3,30)          -179.6317         estimate D2E/DX2                !
 ! D17   D(21,2,3,4)          -179.2326         estimate D2E/DX2                !
 ! D18   D(21,2,3,30)            0.7674         estimate D2E/DX2                !
 ! D19   D(2,3,4,5)             -0.2155         estimate D2E/DX2                !
 ! D20   D(2,3,4,22)           177.5353         estimate D2E/DX2                !
 ! D21   D(30,3,4,5)           179.7845         estimate D2E/DX2                !
 ! D22   D(30,3,4,22)           -2.4647         estimate D2E/DX2                !
 ! D23   D(2,3,30,31)          -92.428          estimate D2E/DX2                !
 ! D24   D(2,3,30,32)           87.572          estimate D2E/DX2                !
 ! D25   D(4,3,30,31)           87.572          estimate D2E/DX2                !
 ! D26   D(4,3,30,32)          -92.428          estimate D2E/DX2                !
 ! D27   D(3,4,5,1)              0.0035         estimate D2E/DX2                !
 ! D28   D(3,4,5,12)           175.3836         estimate D2E/DX2                !
 ! D29   D(22,4,5,1)          -177.7943         estimate D2E/DX2                !
 ! D30   D(22,4,5,12)           -2.4142         estimate D2E/DX2                !
 ! D31   D(1,5,12,11)         -177.3415         estimate D2E/DX2                !
 ! D32   D(1,5,12,13)            5.7978         estimate D2E/DX2                !
 ! D33   D(4,5,12,11)            7.821          estimate D2E/DX2                !
 ! D34   D(4,5,12,13)         -169.0397         estimate D2E/DX2                !
 ! D35   D(11,6,7,8)            -0.0271         estimate D2E/DX2                !
 ! D36   D(11,6,7,24)         -179.4447         estimate D2E/DX2                !
 ! D37   D(23,6,7,8)           178.1244         estimate D2E/DX2                !
 ! D38   D(23,6,7,24)           -1.2931         estimate D2E/DX2                !
 ! D39   D(7,6,11,10)            0.3432         estimate D2E/DX2                !
 ! D40   D(7,6,11,12)          179.8532         estimate D2E/DX2                !
 ! D41   D(23,6,11,10)        -177.8125         estimate D2E/DX2                !
 ! D42   D(23,6,11,12)           1.6975         estimate D2E/DX2                !
 ! D43   D(6,7,8,9)             -0.2237         estimate D2E/DX2                !
 ! D44   D(6,7,8,25)           179.9237         estimate D2E/DX2                !
 ! D45   D(24,7,8,9)           179.1906         estimate D2E/DX2                !
 ! D46   D(24,7,8,25)           -0.662          estimate D2E/DX2                !
 ! D47   D(7,8,9,10)             0.1516         estimate D2E/DX2                !
 ! D48   D(7,8,9,26)           179.7043         estimate D2E/DX2                !
 ! D49   D(25,8,9,10)         -179.9959         estimate D2E/DX2                !
 ! D50   D(25,8,9,26)           -0.4431         estimate D2E/DX2                !
 ! D51   D(8,9,10,11)            0.1721         estimate D2E/DX2                !
 ! D52   D(8,9,10,27)          178.8513         estimate D2E/DX2                !
 ! D53   D(26,9,10,11)        -179.3831         estimate D2E/DX2                !
 ! D54   D(26,9,10,27)          -0.7039         estimate D2E/DX2                !
 ! D55   D(9,10,11,6)           -0.4156         estimate D2E/DX2                !
 ! D56   D(9,10,11,12)        -179.9306         estimate D2E/DX2                !
 ! D57   D(27,10,11,6)        -179.1023         estimate D2E/DX2                !
 ! D58   D(27,10,11,12)          1.3827         estimate D2E/DX2                !
 ! D59   D(6,11,12,5)          137.4043         estimate D2E/DX2                !
 ! D60   D(6,11,12,13)         -45.862          estimate D2E/DX2                !
 ! D61   D(10,11,12,5)         -43.0942         estimate D2E/DX2                !
 ! D62   D(10,11,12,13)        133.6395         estimate D2E/DX2                !
 ! D63   D(5,12,13,14)         175.3495         estimate D2E/DX2                !
 ! D64   D(5,12,13,17)          -3.7908         estimate D2E/DX2                !
 ! D65   D(11,12,13,14)         -1.4659         estimate D2E/DX2                !
 ! D66   D(11,12,13,17)        179.3938         estimate D2E/DX2                !
 ! D67   D(12,13,14,15)       -178.1616         estimate D2E/DX2                !
 ! D68   D(12,13,14,28)          2.1235         estimate D2E/DX2                !
 ! D69   D(17,13,14,15)          1.0654         estimate D2E/DX2                !
 ! D70   D(17,13,14,28)       -178.6496         estimate D2E/DX2                !
 ! D71   D(12,13,17,16)        178.4115         estimate D2E/DX2                !
 ! D72   D(12,13,17,19)        -10.9469         estimate D2E/DX2                !
 ! D73   D(14,13,17,16)         -0.9139         estimate D2E/DX2                !
 ! D74   D(14,13,17,19)        169.7277         estimate D2E/DX2                !
 ! D75   D(13,14,15,16)         -0.8063         estimate D2E/DX2                !
 ! D76   D(13,14,15,41)        179.1937         estimate D2E/DX2                !
 ! D77   D(28,14,15,16)        178.9049         estimate D2E/DX2                !
 ! D78   D(28,14,15,41)         -1.0951         estimate D2E/DX2                !
 ! D79   D(14,15,16,17)          0.25           estimate D2E/DX2                !
 ! D80   D(14,15,16,29)       -178.0745         estimate D2E/DX2                !
 ! D81   D(41,15,16,17)       -179.75           estimate D2E/DX2                !
 ! D82   D(41,15,16,29)          1.9255         estimate D2E/DX2                !
 ! D83   D(14,15,41,42)         90.1593         estimate D2E/DX2                !
 ! D84   D(14,15,41,43)        -89.8407         estimate D2E/DX2                !
 ! D85   D(16,15,41,42)        -89.8407         estimate D2E/DX2                !
 ! D86   D(16,15,41,43)         90.1593         estimate D2E/DX2                !
 ! D87   D(15,16,17,13)          0.4163         estimate D2E/DX2                !
 ! D88   D(15,16,17,19)       -170.316          estimate D2E/DX2                !
 ! D89   D(29,16,17,13)        178.8903         estimate D2E/DX2                !
 ! D90   D(29,16,17,19)          8.158          estimate D2E/DX2                !
 ! D91   D(13,17,19,1)          19.826          estimate D2E/DX2                !
 ! D92   D(13,17,19,18)        139.3615         estimate D2E/DX2                !
 ! D93   D(13,17,19,20)        -99.4042         estimate D2E/DX2                !
 ! D94   D(16,17,19,1)        -171.0622         estimate D2E/DX2                !
 ! D95   D(16,17,19,18)        -51.5267         estimate D2E/DX2                !
 ! D96   D(16,17,19,20)         69.7076         estimate D2E/DX2                !
 ! D97   D(3,30,31,33)        -180.0            estimate D2E/DX2                !
 ! D98   D(3,30,31,36)           0.0            estimate D2E/DX2                !
 ! D99   D(32,30,31,33)          0.0            estimate D2E/DX2                !
 ! D100  D(32,30,31,36)       -180.0            estimate D2E/DX2                !
 ! D101  D(3,30,32,34)         180.0            estimate D2E/DX2                !
 ! D102  D(3,30,32,37)           0.0            estimate D2E/DX2                !
 ! D103  D(31,30,32,34)          0.0            estimate D2E/DX2                !
 ! D104  D(31,30,32,37)        180.0            estimate D2E/DX2                !
 ! D105  D(30,31,33,35)          0.0            estimate D2E/DX2                !
 ! D106  D(30,31,33,38)        180.0            estimate D2E/DX2                !
 ! D107  D(36,31,33,35)        180.0            estimate D2E/DX2                !
 ! D108  D(36,31,33,38)          0.0            estimate D2E/DX2                !
 ! D109  D(30,32,34,35)          0.0            estimate D2E/DX2                !
 ! D110  D(30,32,34,39)        180.0            estimate D2E/DX2                !
 ! D111  D(37,32,34,35)       -180.0            estimate D2E/DX2                !
 ! D112  D(37,32,34,39)          0.0            estimate D2E/DX2                !
 ! D113  D(31,33,35,34)          0.0            estimate D2E/DX2                !
 ! D114  D(31,33,35,40)        180.0            estimate D2E/DX2                !
 ! D115  D(38,33,35,34)        180.0            estimate D2E/DX2                !
 ! D116  D(38,33,35,40)          0.0            estimate D2E/DX2                !
 ! D117  D(32,34,35,33)          0.0            estimate D2E/DX2                !
 ! D118  D(32,34,35,40)       -180.0            estimate D2E/DX2                !
 ! D119  D(39,34,35,33)        180.0            estimate D2E/DX2                !
 ! D120  D(39,34,35,40)          0.0            estimate D2E/DX2                !
 ! D121  D(15,41,42,44)       -180.0            estimate D2E/DX2                !
 ! D122  D(15,41,42,47)          0.0            estimate D2E/DX2                !
 ! D123  D(43,41,42,44)          0.0            estimate D2E/DX2                !
 ! D124  D(43,41,42,47)        180.0            estimate D2E/DX2                !
 ! D125  D(15,41,43,45)        180.0            estimate D2E/DX2                !
 ! D126  D(15,41,43,48)          0.0            estimate D2E/DX2                !
 ! D127  D(42,41,43,45)          0.0            estimate D2E/DX2                !
 ! D128  D(42,41,43,48)        180.0            estimate D2E/DX2                !
 ! D129  D(41,42,44,46)          0.0            estimate D2E/DX2                !
 ! D130  D(41,42,44,49)        180.0            estimate D2E/DX2                !
 ! D131  D(47,42,44,46)        180.0            estimate D2E/DX2                !
 ! D132  D(47,42,44,49)          0.0            estimate D2E/DX2                !
 ! D133  D(41,43,45,46)          0.0            estimate D2E/DX2                !
 ! D134  D(41,43,45,50)        180.0            estimate D2E/DX2                !
 ! D135  D(48,43,45,46)        180.0            estimate D2E/DX2                !
 ! D136  D(48,43,45,50)          0.0            estimate D2E/DX2                !
 ! D137  D(42,44,46,45)          0.0            estimate D2E/DX2                !
 ! D138  D(42,44,46,51)        180.0            estimate D2E/DX2                !
 ! D139  D(49,44,46,45)       -180.0            estimate D2E/DX2                !
 ! D140  D(49,44,46,51)          0.0            estimate D2E/DX2                !
 ! D141  D(43,45,46,44)          0.0            estimate D2E/DX2                !
 ! D142  D(43,45,46,51)        180.0            estimate D2E/DX2                !
 ! D143  D(50,45,46,44)       -180.0            estimate D2E/DX2                !
 ! D144  D(50,45,46,51)          0.0            estimate D2E/DX2                !
 --------------------------------------------------------------------------------
 Trust Radius=3.00D-01 FncErr=1.00D-07 GrdErr=1.00D-06
 Number of steps in this run=    303 maximum allowed number of steps=    306.
 GradGradGradGradGradGradGradGradGradGradGradGradGradGradGradGradGradGrad

 Leave Link  103 at Tue Apr 21 13:06:32 2020, MaxMem= 12079595520 cpu:         0.5
 (Enter /scratch/prg/gaussian/bin/g09/l202.exe)
 Symmetry turned off by external request.
 Stoichiometry    C27H19BF2N2
 Framework group  C1[X(C27H19BF2N2)]
 Deg. of freedom   147
 Full point group                 C1      NOp   1
                          Input orientation:                          
 ---------------------------------------------------------------------
 Center     Atomic      Atomic             Coordinates (Angstroms)
 Number     Number       Type             X           Y           Z
 ---------------------------------------------------------------------
      1          7           0       12.613604   -9.507027   -0.980922
      2          6           0       13.622573   -9.910028   -1.759172
      3          6           0       14.347781   -8.785074   -2.250496
      4          6           0       13.724893   -7.657055   -1.716968
      5          6           0       12.637970   -8.101252   -0.920843
      6          6           0       10.543997   -5.172365   -0.090570
      7          6           0       10.564610   -3.779679   -0.086131
      8          6           0       11.779569   -3.093067   -0.080031
      9          6           0       12.976907   -3.810807   -0.073658
     10          6           0       12.960451   -5.203056   -0.076562
     11          6           0       11.742874   -5.906545   -0.089555
     12          6           0       11.736598   -7.378655   -0.090980
     13          6           0       10.890345   -8.123974    0.774636
     14          6           0        9.963715   -7.713353    1.767990
     15          6           0        9.429814   -8.862583    2.350913
     16          6           0       10.033579   -9.966196    1.681785
     17          7           0       10.888832   -9.533119    0.750318
     18          9           0       12.182264  -11.524873    0.279544
     19          5           0       11.567555  -10.420587   -0.313376
     20          9           0       10.625101  -10.863961   -1.253127
     21          1           0       13.804026  -10.968426   -1.939148
     22          1           0       14.027548   -6.621738   -1.844963
     23          1           0        9.589786   -5.700220   -0.064339
     24          1           0        9.624052   -3.227730   -0.077808
     25          1           0       11.793467   -2.002748   -0.077818
     26          1           0       13.931501   -3.283436   -0.073730
     27          1           0       13.899611   -5.758681   -0.090509
     28          1           0        9.718007   -6.685806    2.017932
     29          1           0        9.857013  -11.030516    1.829252
     30          6           0       15.572993   -8.810476   -3.183133
     31          6           0       16.877744   -8.822393   -2.661776
     32          6           0       15.417885   -8.822393   -4.579604
     33          6           0       17.986878   -8.845384   -3.505647
     34          6           0       16.526626   -8.845384   -5.423990
     35          6           0       17.816569   -8.856990   -4.890953
     36          1           0       17.021485   -8.813529   -1.585800
     37          1           0       14.419030   -8.813529   -5.004663
     38          1           0       18.986173   -8.854246   -3.079808
     39          1           0       16.382252   -8.854246   -6.500598
     40          1           0       18.680582   -8.874903   -5.548644
     41          6           0        8.395011   -8.925934    3.489671
     42          6           0        7.017637   -8.955656    3.213465
     43          6           0        8.801405   -8.955656    4.834398
     44          6           0        6.080798   -9.012994    4.243936
     45          6           0        7.865046   -9.012994    5.865304
     46          6           0        6.500106   -9.041940    5.574934
     47          1           0        6.680693   -8.933548    2.181746
     48          1           0        9.860572   -8.933548    5.071342
     49          1           0        5.021058   -9.035096    4.006305
     50          1           0        8.202728   -9.035096    6.897529
     51          1           0        5.770368   -9.086615    6.377980
 ---------------------------------------------------------------------
 Rotational constants (GHZ):      0.2404881      0.0682727      0.0567769
 Leave Link  202 at Tue Apr 21 13:06:33 2020, MaxMem= 12079595520 cpu:         0.2
 (Enter /scratch/prg/gaussian/bin/g09/l301.exe)
 Standard basis: CC-pVDZ (5D, 7F)
 Ernie: Thresh=  0.10000D-02 Tol=  0.10000D-05 Strict=F.
 Ernie:  64 primitive shells out of 799 were deleted.
   543 basis functions,  1189 primitive gaussians,   575 cartesian basis functions
   109 alpha electrons      109 beta electrons
       nuclear repulsion energy      2826.4519433322 Hartrees.
 IExCor= 4336 DFT=T Ex+Corr=M062X ExCW=0 ScaHFX=  0.540000
 ScaDFX=  1.000000  1.000000  1.000000  1.000000 ScalE2=  1.000000  1.000000
 IRadAn=      5 IRanWt=     -1 IRanGd=            0 ICorTp=0 IEmpDi=  4
 NAtoms=   51 NActive=   51 NUniq=   51 SFac= 1.00D+00 NAtFMM=   60 NAOKFM=F Big=F
 Integral buffers will be    131072 words long.
 Regular integral format.
 Two-electron integral symmetry is turned off.
 ------------------------------------------------------------------------------
 Polarizable Continuum Model (PCM)
 =================================
 Model                : C-PCM.
 Atomic radii         : UFF (Universal Force Field).
 Polarization charges : Total charges.
 Charge compensation  : None.
 Solution method      : On-the-fly selection.
 Cavity type          : Scaled VdW (van der Waals Surface) (Alpha=1.100).
 Cavity algorithm     : GePol (No added spheres)
                        Default sphere list used, NSphG=   51.
                        Lebedev-Laikov grids with approx.  5.0 points / Ang**2.
                        Smoothing algorithm: Karplus/York (Gamma=1.0000).
                        Polarization charges: spherical gaussians, with
                                              point-specific exponents (IZeta= 3).
                        Self-potential: point-specific (ISelfS= 7).
                        Self-field    : sphere-specific E.n sum rule (ISelfD= 2).
 1st derivatives      : Analytical E(r).r(x)/FMM algorithm (CHGder, D1EAlg=3).
                        Cavity 1st derivative terms included.
 Solvent              : Toluene, Eps=   2.374100 Eps(inf)=   2.238315
 ------------------------------------------------------------------------------
 GePol: Number of generator spheres                  =      51
 GePol: Total number of spheres                      =      51
 GePol: Number of exposed spheres                    =      51 (100.00%)
 GePol: Number of points                             =    3960
 GePol: Average weight of points                     =       0.13
 GePol: Minimum weight of points                     =   0.12D-08
 GePol: Maximum weight of points                     =    0.20577
 GePol: Number of points with low weight             =     269
 GePol: Fraction of low-weight points (<1% of avg)   =       6.79%
 GePol: Cavity surface area                          =    507.874 Ang**2
 GePol: Cavity volume                                =    563.266 Ang**3
 Leave Link  301 at Tue Apr 21 13:06:33 2020, MaxMem= 12079595520 cpu:         3.8
 (Enter /scratch/prg/gaussian/bin/g09/linda-exe/l302.exel)
 NPDir=0 NMtPBC=     1 NCelOv=     1 NCel=       1 NClECP=     1 NCelD=      1
         NCelK=      1 NCelE2=     1 NClLst=     1 CellRange=     0.0.
 One-electron integrals computed using PRISM.
 NBasis=   543 RedAO= T EigKep=  2.54D-04  NBF=   543
 NBsUse=   543 1.00D-06 EigRej= -1.00D+00 NBFU=   543
 Precomputing XC quadrature grid using
 IXCGrd= 4 IRadAn=           5 IRanWt=          -1 IRanGd=           0 AccXCQ= 0.00D+00.
 Generated NRdTot=       0 NPtTot=           0 NUsed=           0 NTot=          32
 NSgBfM=   557   557   557   557   557 MxSgAt=    51 MxSgA2=    51.
 Leave Link  302 at Tue Apr 21 13:06:36 2020, MaxMem= 12079595520 cpu:        21.0
 (Enter /scratch/prg/gaussian/bin/g09/l308.exe)
 Leave Link  308 at Tue Apr 21 13:06:36 2020, MaxMem= 12079595520 cpu:         2.7
 (Enter /scratch/prg/gaussian/bin/g09/l303.exe)
 DipDrv:  MaxL=1.
 Leave Link  303 at Tue Apr 21 13:06:37 2020, MaxMem= 12079595520 cpu:         2.2
 (Enter /scratch/prg/gaussian/bin/g09/linda-exe/l401.exel)
 ExpMin= 9.54D-02 ExpMax= 1.47D+04 ExpMxC= 5.03D+02 IAcc=3 IRadAn=         5 AccDes= 0.00D+00
 Harris functional with IExCor= 1009 and IRadAn=       5 diagonalized for initial guess.
 HarFok:  IExCor= 1009 AccDes= 0.00D+00 IRadAn=         5 IDoV= 1 UseB2=F ITyADJ=14
 ICtDFT=  3500011 ScaDFX=  1.000000  1.000000  1.000000  1.000000
 FoFCou: FMM=F IPFlag=           0 FMFlag=      100000 FMFlg1=           0
         NFxFlg=           0 DoJE=T BraDBF=F KetDBF=T FulRan=T
         wScrn=  0.000000 ICntrl=     500 IOpCl=  0 I1Cent=   200000004 NGrid=           0
         NMat0=    1 NMatS0=      1 NMatT0=    0 NMatD0=    1 NMtDS0=    0 NMtDT0=    0
 Symmetry not used in FoFCou.
 Harris En= -1373.26959917345    
 JPrj=0 DoOrth=F DoCkMO=F.
 Leave Link  401 at Tue Apr 21 13:06:42 2020, MaxMem= 12079595520 cpu:        55.3
 (Enter /scratch/prg/gaussian/bin/g09/linda-exe/l502.exel)
 Closed shell SCF:
 Using DIIS extrapolation, IDIIS=  1040.
 Two-electron integral symmetry not used.
 Keep R1 ints in memory in canonical form, NReq=11003700133.
 IVT=     1020877 IEndB=     1020877 NGot= 12079595520 MDV=  1171446588
 LenX=  1171446588 LenY=  1171115388
 Requested convergence on RMS density matrix=1.00D-08 within 128 cycles.
 Requested convergence on MAX density matrix=1.00D-06.
 Requested convergence on             energy=1.00D-06.
 No special actions if energy rises.
 FoFCou: FMM=F IPFlag=           0 FMFlag=           0 FMFlg1=           0
         NFxFlg=           0 DoJE=F BraDBF=F KetDBF=F FulRan=T
         wScrn=  0.000000 ICntrl=     600 IOpCl=  0 I1Cent=           0 NGrid=           0
         NMat0=    1 NMatS0= 147696 NMatT0=    0 NMatD0=    1 NMtDS0=    0 NMtDT0=    0
 Symmetry not used in FoFCou.

 Cycle   1  Pass 1  IDiag  1:
 Inv3:  Mode=1 IEnd=    47044800.
 Iteration    1 A*A^-1 deviation from unit magnitude is 1.02D-14 for   3394.
 Iteration    1 A*A^-1 deviation from orthogonality  is 5.81D-15 for   3412   1359.
 Iteration    1 A^-1*A deviation from unit magnitude is 9.99D-15 for   2755.
 Iteration    1 A^-1*A deviation from orthogonality  is 5.04D-15 for   3782   1967.
 E= -1373.62473947165    
 DIIS: error= 4.31D-02 at cycle   1 NSaved=   1.
 NSaved= 1 IEnMin= 1 EnMin= -1373.62473947165     IErMin= 1 ErrMin= 4.31D-02
 ErrMax= 4.31D-02  0.00D+00 EMaxC= 1.00D-01 BMatC= 5.14D-01 BMatP= 5.14D-01
 IDIUse=3 WtCom= 5.69D-01 WtEn= 4.31D-01
 Coeff-Com:  0.100D+01
 Coeff-En:   0.100D+01
 Coeff:      0.100D+01
 Gap=     0.176 Goal=   None    Shift=    0.000
 GapD=    0.176 DampG=1.000 DampE=0.500 DampFc=0.5000 IDamp=-1.
 Damping current iteration by 5.00D-01
 RMSDP=2.97D-03 MaxDP=7.79D-02              OVMax= 1.29D-01

 Cycle   2  Pass 1  IDiag  1:
 E= -1373.89579771381     Delta-E=       -0.271058242156 Rises=F Damp=T
 DIIS: error= 8.72D-03 at cycle   2 NSaved=   2.
 NSaved= 2 IEnMin= 2 EnMin= -1373.89579771381     IErMin= 2 ErrMin= 8.72D-03
 ErrMax= 8.72D-03  0.00D+00 EMaxC= 1.00D-01 BMatC= 4.35D-02 BMatP= 5.14D-01
 IDIUse=3 WtCom= 9.13D-01 WtEn= 8.72D-02
 Coeff-Com: -0.144D+00 0.114D+01
 Coeff-En:   0.000D+00 0.100D+01
 Coeff:     -0.132D+00 0.113D+01
 Gap=     0.232 Goal=   None    Shift=    0.000
 RMSDP=1.00D-03 MaxDP=5.53D-02 DE=-2.71D-01 OVMax= 8.53D-02

 Cycle   3  Pass 1  IDiag  1:
 E= -1374.13284373791     Delta-E=       -0.237046024108 Rises=F Damp=F
 DIIS: error= 3.97D-03 at cycle   3 NSaved=   3.
 NSaved= 3 IEnMin= 3 EnMin= -1374.13284373791     IErMin= 3 ErrMin= 3.97D-03
 ErrMax= 3.97D-03  0.00D+00 EMaxC= 1.00D-01 BMatC= 1.59D-02 BMatP= 4.35D-02
 IDIUse=3 WtCom= 9.60D-01 WtEn= 3.97D-02
 Coeff-Com: -0.112D+00 0.455D+00 0.657D+00
 Coeff-En:   0.000D+00 0.000D+00 0.100D+01
 Coeff:     -0.108D+00 0.437D+00 0.670D+00
 Gap=     0.170 Goal=   None    Shift=    0.000
 RMSDP=3.16D-04 MaxDP=1.88D-02 DE=-2.37D-01 OVMax= 4.62D-02

 Cycle   4  Pass 1  IDiag  1:
 E= -1374.14390431350     Delta-E=       -0.011060575582 Rises=F Damp=F
 DIIS: error= 1.91D-03 at cycle   4 NSaved=   4.
 NSaved= 4 IEnMin= 4 EnMin= -1374.14390431350     IErMin= 4 ErrMin= 1.91D-03
 ErrMax= 1.91D-03  0.00D+00 EMaxC= 1.00D-01 BMatC= 4.16D-03 BMatP= 1.59D-02
 IDIUse=3 WtCom= 9.81D-01 WtEn= 1.91D-02
 Coeff-Com: -0.408D-01 0.113D+00 0.372D+00 0.556D+00
 Coeff-En:   0.000D+00 0.000D+00 0.209D+00 0.791D+00
 Coeff:     -0.400D-01 0.111D+00 0.369D+00 0.560D+00
 Gap=     0.173 Goal=   None    Shift=    0.000
 RMSDP=1.26D-04 MaxDP=7.52D-03 DE=-1.11D-02 OVMax= 2.19D-02

 Cycle   5  Pass 1  IDiag  1:
 E= -1374.14783880298     Delta-E=       -0.003934489487 Rises=F Damp=F
 DIIS: error= 4.08D-04 at cycle   5 NSaved=   5.
 NSaved= 5 IEnMin= 5 EnMin= -1374.14783880298     IErMin= 5 ErrMin= 4.08D-04
 ErrMax= 4.08D-04  0.00D+00 EMaxC= 1.00D-01 BMatC= 2.05D-04 BMatP= 4.16D-03
 IDIUse=3 WtCom= 9.96D-01 WtEn= 4.08D-03
 Coeff-Com: -0.102D-01 0.183D-01 0.121D+00 0.261D+00 0.609D+00
 Coeff-En:   0.000D+00 0.000D+00 0.000D+00 0.000D+00 0.100D+01
 Coeff:     -0.102D-01 0.182D-01 0.121D+00 0.260D+00 0.611D+00
 Gap=     0.172 Goal=   None    Shift=    0.000
 RMSDP=3.20D-05 MaxDP=1.70D-03 DE=-3.93D-03 OVMax= 3.90D-03

 Cycle   6  Pass 1  IDiag  1:
 E= -1374.14803317768     Delta-E=       -0.000194374697 Rises=F Damp=F
 DIIS: error= 1.54D-04 at cycle   6 NSaved=   6.
 NSaved= 6 IEnMin= 6 EnMin= -1374.14803317768     IErMin= 6 ErrMin= 1.54D-04
 ErrMax= 1.54D-04  0.00D+00 EMaxC= 1.00D-01 BMatC= 1.62D-05 BMatP= 2.05D-04
 IDIUse=3 WtCom= 9.98D-01 WtEn= 1.54D-03
 Coeff-Com: -0.224D-02 0.174D-02 0.317D-01 0.833D-01 0.287D+00 0.598D+00
 Coeff-En:   0.000D+00 0.000D+00 0.000D+00 0.000D+00 0.000D+00 0.100D+01
 Coeff:     -0.224D-02 0.173D-02 0.317D-01 0.832D-01 0.287D+00 0.599D+00
 Gap=     0.172 Goal=   None    Shift=    0.000
 RMSDP=8.53D-06 MaxDP=4.71D-04 DE=-1.94D-04 OVMax= 1.03D-03

 Cycle   7  Pass 1  IDiag  1:
 E= -1374.14805007982     Delta-E=       -0.000016902142 Rises=F Damp=F
 DIIS: error= 4.15D-05 at cycle   7 NSaved=   7.
 NSaved= 7 IEnMin= 7 EnMin= -1374.14805007982     IErMin= 7 ErrMin= 4.15D-05
 ErrMax= 4.15D-05  0.00D+00 EMaxC= 1.00D-01 BMatC= 1.17D-06 BMatP= 1.62D-05
 IDIUse=1 WtCom= 1.00D+00 WtEn= 0.00D+00
 Coeff-Com:  0.162D-03-0.128D-02 0.358D-03 0.733D-02 0.524D-01 0.235D+00
 Coeff-Com:  0.706D+00
 Coeff:      0.162D-03-0.128D-02 0.358D-03 0.733D-02 0.524D-01 0.235D+00
 Coeff:      0.706D+00
 Gap=     0.172 Goal=   None    Shift=    0.000
 RMSDP=2.89D-06 MaxDP=1.35D-04 DE=-1.69D-05 OVMax= 4.70D-04

 Cycle   8  Pass 1  IDiag  1:
 E= -1374.14805139001     Delta-E=       -0.000001310184 Rises=F Damp=F
 DIIS: error= 1.51D-05 at cycle   8 NSaved=   8.
 NSaved= 8 IEnMin= 8 EnMin= -1374.14805139001     IErMin= 8 ErrMin= 1.51D-05
 ErrMax= 1.51D-05  0.00D+00 EMaxC= 1.00D-01 BMatC= 1.73D-07 BMatP= 1.17D-06
 IDIUse=1 WtCom= 1.00D+00 WtEn= 0.00D+00
 Coeff-Com:  0.544D-03-0.995D-03-0.603D-02-0.128D-01-0.320D-01-0.862D-02
 Coeff-Com:  0.296D+00 0.764D+00
 Coeff:      0.544D-03-0.995D-03-0.603D-02-0.128D-01-0.320D-01-0.862D-02
 Coeff:      0.296D+00 0.764D+00
 Gap=     0.172 Goal=   None    Shift=    0.000
 RMSDP=1.20D-06 MaxDP=5.28D-05 DE=-1.31D-06 OVMax= 1.93D-04

 Cycle   9  Pass 1  IDiag  1:
 E= -1374.14805161543     Delta-E=       -0.000000225426 Rises=F Damp=F
 DIIS: error= 3.54D-06 at cycle   9 NSaved=   9.
 NSaved= 9 IEnMin= 9 EnMin= -1374.14805161543     IErMin= 9 ErrMin= 3.54D-06
 ErrMax= 3.54D-06  0.00D+00 EMaxC= 1.00D-01 BMatC= 1.23D-08 BMatP= 1.73D-07
 IDIUse=1 WtCom= 1.00D+00 WtEn= 0.00D+00
 Coeff-Com:  0.181D-03-0.273D-03-0.208D-02-0.486D-02-0.141D-01-0.135D-01
 Coeff-Com:  0.677D-01 0.279D+00 0.688D+00
 Coeff:      0.181D-03-0.273D-03-0.208D-02-0.486D-02-0.141D-01-0.135D-01
 Coeff:      0.677D-01 0.279D+00 0.688D+00
 Gap=     0.172 Goal=   None    Shift=    0.000
 RMSDP=3.36D-07 MaxDP=2.65D-05 DE=-2.25D-07 OVMax= 5.91D-05

 Cycle  10  Pass 1  IDiag  1:
 E= -1374.14805163017     Delta-E=       -0.000000014737 Rises=F Damp=F
 DIIS: error= 2.15D-06 at cycle  10 NSaved=  10.
 NSaved=10 IEnMin=10 EnMin= -1374.14805163017     IErMin=10 ErrMin= 2.15D-06
 ErrMax= 2.15D-06  0.00D+00 EMaxC= 1.00D-01 BMatC= 3.39D-09 BMatP= 1.23D-08
 IDIUse=1 WtCom= 1.00D+00 WtEn= 0.00D+00
 Coeff-Com: -0.239D-05 0.301D-04 0.222D-04-0.166D-03-0.148D-02-0.520D-02
 Coeff-Com: -0.200D-01-0.663D-03 0.348D+00 0.680D+00
 Coeff:     -0.239D-05 0.301D-04 0.222D-04-0.166D-03-0.148D-02-0.520D-02
 Coeff:     -0.200D-01-0.663D-03 0.348D+00 0.680D+00
 Gap=     0.172 Goal=   None    Shift=    0.000
 RMSDP=1.41D-07 MaxDP=6.79D-06 DE=-1.47D-08 OVMax= 2.50D-05

 Cycle  11  Pass 1  IDiag  1:
 E= -1374.14805163442     Delta-E=       -0.000000004247 Rises=F Damp=F
 DIIS: error= 4.51D-07 at cycle  11 NSaved=  11.
 NSaved=11 IEnMin=11 EnMin= -1374.14805163442     IErMin=11 ErrMin= 4.51D-07
 ErrMax= 4.51D-07  0.00D+00 EMaxC= 1.00D-01 BMatC= 2.44D-10 BMatP= 3.39D-09
 IDIUse=1 WtCom= 1.00D+00 WtEn= 0.00D+00
 Coeff-Com: -0.273D-04 0.519D-04 0.307D-03 0.635D-03 0.141D-02-0.289D-03
 Coeff-Com: -0.186D-01-0.440D-01 0.492D-01 0.254D+00 0.757D+00
 Coeff:     -0.273D-04 0.519D-04 0.307D-03 0.635D-03 0.141D-02-0.289D-03
 Coeff:     -0.186D-01-0.440D-01 0.492D-01 0.254D+00 0.757D+00
 Gap=     0.172 Goal=   None    Shift=    0.000
 RMSDP=5.25D-08 MaxDP=1.94D-06 DE=-4.25D-09 OVMax= 9.72D-06

 Cycle  12  Pass 1  IDiag  1:
 E= -1374.14805163483     Delta-E=       -0.000000000410 Rises=F Damp=F
 DIIS: error= 1.92D-07 at cycle  12 NSaved=  12.
 NSaved=12 IEnMin=12 EnMin= -1374.14805163483     IErMin=12 ErrMin= 1.92D-07
 ErrMax= 1.92D-07  0.00D+00 EMaxC= 1.00D-01 BMatC= 2.76D-11 BMatP= 2.44D-10
 IDIUse=1 WtCom= 1.00D+00 WtEn= 0.00D+00
 Coeff-Com: -0.966D-05 0.159D-04 0.109D-03 0.245D-03 0.648D-03 0.385D-03
 Coeff-Com: -0.430D-02-0.154D-01-0.110D-01 0.249D-01 0.293D+00 0.712D+00
 Coeff:     -0.966D-05 0.159D-04 0.109D-03 0.245D-03 0.648D-03 0.385D-03
 Coeff:     -0.430D-02-0.154D-01-0.110D-01 0.249D-01 0.293D+00 0.712D+00
 Gap=     0.172 Goal=   None    Shift=    0.000
 RMSDP=1.41D-08 MaxDP=6.89D-07 DE=-4.10D-10 OVMax= 2.31D-06

 Cycle  13  Pass 1  IDiag  1:
 E= -1374.14805163468     Delta-E=        0.000000000142 Rises=F Damp=F
 DIIS: error= 3.29D-08 at cycle  13 NSaved=  13.
 NSaved=13 IEnMin=12 EnMin= -1374.14805163483     IErMin=13 ErrMin= 3.29D-08
 ErrMax= 3.29D-08  0.00D+00 EMaxC= 1.00D-01 BMatC= 1.74D-12 BMatP= 2.76D-11
 IDIUse=1 WtCom= 1.00D+00 WtEn= 0.00D+00
 Coeff-Com: -0.458D-06 0.210D-06 0.498D-05 0.154D-04 0.741D-04 0.129D-03
 Coeff-Com:  0.468D-03-0.920D-03-0.797D-02-0.178D-01 0.214D-01 0.193D+00
 Coeff-Com:  0.812D+00
 Coeff:     -0.458D-06 0.210D-06 0.498D-05 0.154D-04 0.741D-04 0.129D-03
 Coeff:      0.468D-03-0.920D-03-0.797D-02-0.178D-01 0.214D-01 0.193D+00
 Coeff:      0.812D+00
 Gap=     0.172 Goal=   None    Shift=    0.000
 RMSDP=5.07D-09 MaxDP=1.65D-07 DE= 1.42D-10 OVMax= 1.22D-06

 Error on total polarization charges =  0.00946
 SCF Done:  E(RM062X) =  -1374.14805163     A.U. after   13 cycles
            NFock= 13  Conv=0.51D-08     -V/T= 2.0066
 KE= 1.365189999027D+03 PE=-8.852717224198D+03 EE= 3.286927230204D+03
 Leave Link  502 at Tue Apr 21 13:18:31 2020, MaxMem= 12079595520 cpu:      2890.3
 (Enter /scratch/prg/gaussian/bin/g09/l801.exe)
 DoSCS=F DFT=T ScalE2(SS,OS)=  1.000000  1.000000
 ExpMin= 9.54D-02 ExpMax= 1.47D+04 ExpMxC= 5.03D+02 IAcc=3 IRadAn=         5 AccDes= 0.00D+00
 HarFok:  IExCor=  205 AccDes= 0.00D+00 IRadAn=         5 IDoV=-2 UseB2=F ITyADJ=14
 ICtDFT= 12500011 ScaDFX=  1.000000  1.000000  1.000000  1.000000
 Largest valence mixing into a core orbital is  8.02D-05
 Largest core mixing into a valence orbital is  5.09D-05
 Range of M.O.s used for correlation:    33   543
 NBasis=   543 NAE=   109 NBE=   109 NFC=    32 NFV=     0
 NROrb=    511 NOA=    77 NOB=    77 NVA=   434 NVB=   434

 **** Warning!!: The largest alpha MO coefficient is  0.11604972D+02

 Leave Link  801 at Tue Apr 21 13:18:36 2020, MaxMem= 12079595520 cpu:         7.0
 (Enter /scratch/prg/gaussian/bin/g09/linda-exe/l914.exel)
 RHF ground state
 MDV= 12079595520 DFT=T DoStab=F Mixed=T DoRPA=T DoScal=F NonHer=T
 Would need an additional         21069900000 words for in-memory AO integral storage.
 NEqPCM:  Using equilibrium solvation (IEInf=0, Eps=   2.3741, EpsInf=   2.2383)
 Making orbital integer symmetry assigments:
    24 initial guesses have been made.
 Convergence on wavefunction:    0.000001000000000
 Davidson Disk Diagonalization:  ConvIn= 1.00D-06 SkipCon=T Conv= 1.00D-06.
 Max sub-space:   200 roots to seek:    24 dimension of matrix:        66836
 Iteration     1 Dimension    24 NMult     0 NNew     24
 CISAX will form    24 AO SS matrices at one time.
 NMat=    24 NSing=    24 JSym2X= 0.
 FoFJK:  IHMeth= 1 ICntrl=       0 DoSepK=F KAlg= 0 I1Cent=   0 FoldK=F
 IRaf=         0 NMat=  48 IRICut=      60 DoRegI=T DoRafI=T ISym2E= 0.
 FoFCou: FMM=F IPFlag=           0 FMFlag=      100000 FMFlg1=           0
         NFxFlg=           0 DoJE=F BraDBF=F KetDBF=F FulRan=T
         wScrn=  0.000000 ICntrl=       0 IOpCl=  0 I1Cent=           0 NGrid=           0
         NMat0=   48 NMatS0=     24 NMatT0=    0 NMatD0=   48 NMtDS0=    0 NMtDT0=    0
 Symmetry not used in FoFCou.
 New state      2 was old state      6
 New state      3 was old state      7
 New state      4 was old state      2
 New state      5 was old state      3
 New state      6 was old state      8
 Excitation Energies [eV] at current iteration:
 Root      1 :     3.319536896286040
 Root      2 :     4.201755493537604
 Root      3 :     4.300582700676776
 Root      4 :     4.415255624138032
 Root      5 :     4.458646362215892
 Root      6 :     4.532774533816809
 Root      7 :     4.580715941836904
 Root      8 :     4.684336793844863
 Root      9 :     4.686007207910910
 Root     10 :     5.681107632302613
 Root     11 :     5.789394713488899
 Root     12 :     6.208545815334956
 Root     13 :     6.247045685266626
 Root     14 :     6.355533736402992
 Root     15 :     6.483752470236215
 Root     16 :     6.575442501165009
 Root     17 :     6.774537358264634
 Root     18 :     7.071398183659149
 Root     19 :     7.143757638920146
 Root     20 :     7.165909369298599
 Root     21 :     7.456892140946460
 Root     22 :     7.488640086532344
 Root     23 :     7.521681286678037
 Root     24 :     7.567236918473424
 Iteration     2 Dimension    36 NMult    24 NNew     12
 CISAX will form    12 AO SS matrices at one time.
 NMat=    12 NSing=    12 JSym2X= 0.
 Root      1 not converged, maximum delta is    0.061787511056464
 New state      2 was old state      3
 Root      2 not converged, maximum delta is    0.396704937625080
 New state      3 was old state      2
 Root      3 not converged, maximum delta is    0.395403681590558
 New state      4 was old state      6
 Root      4 not converged, maximum delta is    0.226443397560762
 New state      5 was old state      4
 Root      5 not converged, maximum delta is    0.198451696256166
 New state      6 was old state      5
 Root      6 not converged, maximum delta is    0.193064973569671
 Excitation Energies [eV] at current iteration:
 Root      1 :     2.729732447678327   Change is   -0.589804448607713
 Root      2 :     3.872905667240170   Change is   -0.427677033436606
 Root      3 :     3.903552162307041   Change is   -0.298203331230563
 Root      4 :     4.111395362930027   Change is   -0.421379170886782
 Root      5 :     4.327482357068665   Change is   -0.087773267069366
 Root      6 :     4.356745258189587   Change is   -0.101901104026305
 Iteration     3 Dimension    48 NMult    36 NNew     12
 CISAX will form    12 AO SS matrices at one time.
 NMat=    12 NSing=    12 JSym2X= 0.
 Root      1 not converged, maximum delta is    0.011892950070801
 Root      2 not converged, maximum delta is    0.047300982632957
 Root      3 not converged, maximum delta is    0.048069701281929
 Root      4 not converged, maximum delta is    0.025189595342293
 Root      5 not converged, maximum delta is    0.044882043332217
 Root      6 not converged, maximum delta is    0.107939060077771
 Excitation Energies [eV] at current iteration:
 Root      1 :     2.693009885438400   Change is   -0.036722562239927
 Root      2 :     3.857117795633133   Change is   -0.015787871607036
 Root      3 :     3.883587511455972   Change is   -0.019964650851070
 Root      4 :     4.091648184453232   Change is   -0.019747178476795
 Root      5 :     4.316478473049896   Change is   -0.011003884018769
 Root      6 :     4.333790994104403   Change is   -0.022954264085185
 Iteration     4 Dimension    60 NMult    48 NNew     12
 CISAX will form    12 AO SS matrices at one time.
 NMat=    12 NSing=    12 JSym2X= 0.
 Root      1 not converged, maximum delta is    0.004909580607158
 Root      2 not converged, maximum delta is    0.004037188266535
 Root      3 not converged, maximum delta is    0.005085073472053
 Root      4 not converged, maximum delta is    0.009201860674582
 Root      5 not converged, maximum delta is    0.087880757024585
 Root      6 not converged, maximum delta is    0.145403065931525
 Excitation Energies [eV] at current iteration:
 Root      1 :     2.688152129158453   Change is   -0.004857756279947
 Root      2 :     3.854083660567523   Change is   -0.003034135065611
 Root      3 :     3.880367548493739   Change is   -0.003219962962233
 Root      4 :     4.087177969745286   Change is   -0.004470214707946
 Root      5 :     4.314511630507388   Change is   -0.001966842542508
 Root      6 :     4.324000482273257   Change is   -0.009790511831146
 Iteration     5 Dimension    72 NMult    60 NNew     12
 CISAX will form    12 AO SS matrices at one time.
 NMat=    12 NSing=    12 JSym2X= 0.
 Root      1 not converged, maximum delta is    0.000338493857229
 Root      2 not converged, maximum delta is    0.001793489428800
 Root      3 not converged, maximum delta is    0.001918331950812
 Root      4 not converged, maximum delta is    0.001604247350556
 Root      5 not converged, maximum delta is    0.039195425013377
 Root      6 not converged, maximum delta is    0.057428632206216
 Excitation Energies [eV] at current iteration:
 Root      1 :     2.687969820065984   Change is   -0.000182309092469
 Root      2 :     3.853845344750998   Change is   -0.000238315816525
 Root      3 :     3.880027453495433   Change is   -0.000340094998306
 Root      4 :     4.086762262268087   Change is   -0.000415707477200
 Root      5 :     4.313968205390487   Change is   -0.000543425116901
 Root      6 :     4.322343553364594   Change is   -0.001656928908663
 Iteration     6 Dimension    84 NMult    72 NNew     12
 CISAX will form    12 AO SS matrices at one time.
 NMat=    12 NSing=    12 JSym2X= 0.
 Root      1 not converged, maximum delta is    0.000205381493018
 Root      2 not converged, maximum delta is    0.000214068918220
 Root      3 not converged, maximum delta is    0.000272447711168
 Root      4 not converged, maximum delta is    0.000614097110908
 Root      5 not converged, maximum delta is    0.005545718404176
 Root      6 not converged, maximum delta is    0.007758842787574
 Excitation Energies [eV] at current iteration:
 Root      1 :     2.687952843512555   Change is   -0.000016976553430
 Root      2 :     3.853825330144471   Change is   -0.000020014606527
 Root      3 :     3.879998602338586   Change is   -0.000028851156847
 Root      4 :     4.086715094422167   Change is   -0.000047167845920
 Root      5 :     4.313892206990051   Change is   -0.000075998400436
 Root      6 :     4.322135518259427   Change is   -0.000208035105167
 Iteration     7 Dimension    96 NMult    84 NNew     12
 CISAX will form    12 AO SS matrices at one time.
 NMat=    12 NSing=    12 JSym2X= 0.
 Root      1 not converged, maximum delta is    0.000044146726041
 Root      2 not converged, maximum delta is    0.000156159425102
 Root      3 not converged, maximum delta is    0.000219131933842
 Root      4 not converged, maximum delta is    0.000120964884402
 Root      5 not converged, maximum delta is    0.000819923072206
 Root      6 not converged, maximum delta is    0.001076118800354
 Excitation Energies [eV] at current iteration:
 Root      1 :     2.687952136927292   Change is   -0.000000706585262
 Root      2 :     3.853822778600442   Change is   -0.000002551544029
 Root      3 :     3.879994257972025   Change is   -0.000004344366561
 Root      4 :     4.086711375771386   Change is   -0.000003718650781
 Root      5 :     4.313880108758090   Change is   -0.000012098231961
 Root      6 :     4.322103183051573   Change is   -0.000032335207853
 Iteration     8 Dimension   108 NMult    96 NNew     12
 CISAX will form    12 AO SS matrices at one time.
 NMat=    12 NSing=    12 JSym2X= 0.
 Root      1 not converged, maximum delta is    0.000009173058553
 Root      2 not converged, maximum delta is    0.000032917878479
 Root      3 not converged, maximum delta is    0.000047141994608
 Root      4 not converged, maximum delta is    0.000086377660694
 Root      5 not converged, maximum delta is    0.000397922361553
 Root      6 not converged, maximum delta is    0.000661697080053
 Excitation Energies [eV] at current iteration:
 Root      1 :     2.687952079111324   Change is   -0.000000057815968
 Root      2 :     3.853822558431287   Change is   -0.000000220169155
 Root      3 :     3.879993894569830   Change is   -0.000000363402195
 Root      4 :     4.086710938572462   Change is   -0.000000437198924
 Root      5 :     4.313876976989792   Change is   -0.000003131768297
 Root      6 :     4.322094822935520   Change is   -0.000008360116053
 Iteration     9 Dimension   120 NMult   108 NNew     12
 CISAX will form    12 AO SS matrices at one time.
 NMat=    12 NSing=    12 JSym2X= 0.
 Root      1 not converged, maximum delta is    0.000001919738656
 Root      2 not converged, maximum delta is    0.000009807898952
 Root      3 not converged, maximum delta is    0.000010302721322
 Root      4 not converged, maximum delta is    0.000023007241063
 Root      5 not converged, maximum delta is    0.000104762914260
 Root      6 not converged, maximum delta is    0.000178875629278
 Excitation Energies [eV] at current iteration:
 Root      1 :     2.687952075618085   Change is   -0.000000003493239
 Root      2 :     3.853822538390460   Change is   -0.000000020040827
 Root      3 :     3.879993861439007   Change is   -0.000000033130823
 Root      4 :     4.086710891865114   Change is   -0.000000046707347
 Root      5 :     4.313876475546629   Change is   -0.000000501443163
 Root      6 :     4.322093437665772   Change is   -0.000001385269749
 Iteration    10 Dimension   132 NMult   120 NNew     12
 CISAX will form    12 AO SS matrices at one time.
 NMat=    12 NSing=    12 JSym2X= 0.
 Root      1 has converged.
 Root      2 not converged, maximum delta is    0.000001492685465
 Root      3 not converged, maximum delta is    0.000002283628602
 Root      4 not converged, maximum delta is    0.000003036388699
 Root      5 not converged, maximum delta is    0.000017614467252
 Root      6 not converged, maximum delta is    0.000029413680859
 Excitation Energies [eV] at current iteration:
 Root      1 :     2.687952075490490   Change is   -0.000000000127595
 Root      2 :     3.853822536891331   Change is   -0.000000001499129
 Root      3 :     3.879993858848493   Change is   -0.000000002590515
 Root      4 :     4.086710888165415   Change is   -0.000000003699700
 Root      5 :     4.313876419041430   Change is   -0.000000056505198
 Root      6 :     4.322093268822822   Change is   -0.000000168842949
 Iteration    11 Dimension   142 NMult   132 NNew     10
 CISAX will form    10 AO SS matrices at one time.
 NMat=    10 NSing=    10 JSym2X= 0.
 Root      1 has converged.
 Root      2 has converged.
 Root      3 has converged.
 Root      4 has converged.
 Root      5 not converged, maximum delta is    0.000005368637038
 Root      6 not converged, maximum delta is    0.000011191509872
 Excitation Energies [eV] at current iteration:
 Root      1 :     2.687952075488226   Change is   -0.000000000002264
 Root      2 :     3.853822536798005   Change is   -0.000000000093325
 Root      3 :     3.879993858713316   Change is   -0.000000000135176
 Root      4 :     4.086710887872186   Change is   -0.000000000293229
 Root      5 :     4.313876414576505   Change is   -0.000000004464925
 Root      6 :     4.322093255226713   Change is   -0.000000013596109
 Iteration    12 Dimension   146 NMult   142 NNew      4
 CISAX will form     4 AO SS matrices at one time.
 NMat=     4 NSing=     4 JSym2X= 0.
 Root      1 has converged.
 Root      2 has converged.
 Root      3 has converged.
 Root      4 has converged.
 Root      5 not converged, maximum delta is    0.000001582872062
 Root      6 not converged, maximum delta is    0.000003038734134
 Excitation Energies [eV] at current iteration:
 Root      1 :     2.687952075488043   Change is   -0.000000000000183
 Root      2 :     3.853822536797003   Change is   -0.000000000001002
 Root      3 :     3.879993858712426   Change is   -0.000000000000890
 Root      4 :     4.086710887855389   Change is   -0.000000000016796
 Root      5 :     4.313876414162998   Change is   -0.000000000413508
 Root      6 :     4.322093253923728   Change is   -0.000000001302985
 Iteration    13 Dimension   150 NMult   146 NNew      4
 CISAX will form     4 AO SS matrices at one time.
 NMat=     4 NSing=     4 JSym2X= 0.
 Root      1 has converged.
 Root      2 has converged.
 Root      3 has converged.
 Root      4 has converged.
 Root      5 has converged.
 Root      6 has converged.
 Excitation Energies [eV] at current iteration:
 Root      1 :     2.687952075487309   Change is   -0.000000000000734
 Root      2 :     3.853822536797066   Change is    0.000000000000063
 Root      3 :     3.879993858713951   Change is    0.000000000001525
 Root      4 :     4.086710887855369   Change is   -0.000000000000020
 Root      5 :     4.313876414132831   Change is   -0.000000000030167
 Root      6 :     4.322093253832544   Change is   -0.000000000091183
 Convergence achieved on expansion vectors.
 ***********************************************************************
 Excited states from <AA,BB:AA,BB> singles matrix:
 ***********************************************************************
 
 1PDM for each excited state written to RWF  633
 Ground to excited state transition densities written to RWF  633
 Ground to excited state transition electric dipole moments (Au):
       state          X           Y           Z        Dip. S.      Osc.
         1         2.3875      0.0175     -2.2997     10.9890      0.7237
         2        -0.7307      1.0944      0.6674      2.1770      0.2055
         3         0.5109      1.7034     -0.5699      3.4874      0.3315
         4         0.0164     -0.8152     -0.0561      0.6679      0.0669
         5         0.2366     -0.0838     -0.0364      0.0643      0.0068
         6        -0.2580      0.0178     -0.0524      0.0696      0.0074
 Ground to excited state transition velocity dipole moments (Au):
       state          X           Y           Z        Dip. S.      Osc.
         1        -0.2415     -0.0018      0.2329      0.1126      0.7598
         2         0.1054     -0.1559     -0.0972      0.0448      0.2111
         3        -0.0743     -0.2443      0.0831      0.0721      0.3372
         4        -0.0030      0.1248      0.0082      0.0157      0.0695
         5        -0.0408      0.0134      0.0062      0.0019      0.0079
         6         0.0446     -0.0027      0.0086      0.0021      0.0087
 Ground to excited state transition magnetic dipole moments (Au):
       state          X           Y           Z
         1        -2.9138     -5.1326     -3.1180
         2         2.0668      2.0480     -1.0504
         3        -1.6985     -1.8662     -6.9847
         4        -0.1847     -0.1921      2.7974
         5        -0.1043     -0.0494     -0.0053
         6        -0.1604     -0.1431      0.1253
 Ground to excited state transition velocity quadrupole moments (Au):
       state          XX          YY          ZZ          XY          XZ          YZ
         1       -10.9003      0.0841      0.0700      4.1712      5.2158     -4.0319
         2         5.1688      3.8521      0.4328     -5.1018     -2.6185      1.4722
         3        -2.6707      6.0777      0.7172     -4.2737      1.1640     -1.2565
         4        -0.2685     -3.8871     -0.1577      2.7944      0.3049     -0.1547
         5        -2.0049     -0.3771      0.1347      0.7578      0.1517     -0.1114
         6         1.8986     -0.0021      0.1263     -0.5119      0.1618     -0.1102
 <0|del|b> * <b|rxdel|0> + <0|del|b> * <b|delr+rdel|0>
 Rotatory Strengths (R) in cgs (10**-40 erg-esu-cm/Gauss)
       state          XX          YY          ZZ    R(velocity)    E-M Angle
         1       946.5113    -74.1139   -966.9929    -31.5318       90.34
         2      -323.5708    -51.3621    378.4758      1.1810       89.94
         3      -485.4717    -14.7023    506.8982      2.2414       89.96
         4       -37.9338      2.4715     33.3679     -0.6981       90.07
         5         4.3614      9.0878      2.4186      5.2892       44.76
         6        -5.5707    -14.7209     -5.0941     -8.4619      120.23
 1/2[<0|r|b>*<b|rxdel|0> + (<0|rxdel|b>*<b|r|0>)*]
 Rotatory Strengths (R) in cgs (10**-40 erg-esu-cm/Gauss)
       state          XX          YY          ZZ     R(length)
         1      4919.6607     63.4422  -5070.6244    -29.1738
         2      1067.9707  -1584.9598    495.7231     -7.0887
         3       613.6378   2248.0341  -2815.0352     15.5456
         4         2.1411   -110.7550    110.9514      0.7792
         5        17.4607     -2.9247     -0.1359      4.8000
         6       -29.2567      1.8060      4.6466     -7.6014
  1/2[<0|del|b>*<b|r|0> + (<0|r|b>*<b|del|0>)*] (Au)
       state          X           Y           Z        Dip. S.   Osc.(frdel)
         1        -0.5766      0.0000     -0.5357      1.1123      0.7415
         2        -0.0770     -0.1706     -0.0648      0.3124      0.2083
         3        -0.0379     -0.4162     -0.0474      0.5015      0.3343
         4         0.0000     -0.1018     -0.0005      0.1023      0.0682
         5        -0.0096     -0.0011     -0.0002      0.0110      0.0073
         6        -0.0115      0.0000     -0.0004      0.0120      0.0080

 Excitation energies and oscillator strengths:
 
 Excited state symmetry could not be determined.
 Excited State   1:      Singlet-?Sym    2.6880 eV  461.26 nm  f=0.7237  <S**2>=0.000
     109 ->110         0.69835
 This state for optimization and/or second-order correction.
 Total Energy, E(TD-HF/TD-KS) =  -1374.04927121    
 Copying the excited state density for this state as the 1-particle RhoCI density.
 
 Excited state symmetry could not be determined.
 Excited State   2:      Singlet-?Sym    3.8538 eV  321.72 nm  f=0.2055  <S**2>=0.000
     103 ->110         0.53946
     104 ->110         0.37978
     106 ->110         0.20382
 
 Excited state symmetry could not be determined.
 Excited State   3:      Singlet-?Sym    3.8800 eV  319.55 nm  f=0.3315  <S**2>=0.000
     103 ->110        -0.39132
     104 ->110         0.52034
     105 ->110        -0.18971
     106 ->110         0.10843
 
 Excited state symmetry could not be determined.
 Excited State   4:      Singlet-?Sym    4.0867 eV  303.38 nm  f=0.0669  <S**2>=0.000
     101 ->110         0.44973
     102 ->110         0.50272
     104 ->110        -0.12301
     108 ->110        -0.11429
 
 Excited state symmetry could not be determined.
 Excited State   5:      Singlet-?Sym    4.3139 eV  287.41 nm  f=0.0068  <S**2>=0.000
     101 ->110        -0.18624
     102 ->110         0.29503
     107 ->110         0.10848
     108 ->110         0.58414
 
 Excited state symmetry could not be determined.
 Excited State   6:      Singlet-?Sym    4.3221 eV  286.86 nm  f=0.0074  <S**2>=0.000
     101 ->110         0.38571
     102 ->110        -0.30942
     107 ->110        -0.34421
     108 ->110         0.33974
 SavETr:  write IOETrn=   770 NScale= 10 NData=  16 NLR=1 NState=    6 LETran=     118.
 The selected state is a singlet
 CISAX will form     1 AO SS matrices at one time.
 NMat=     1 NSing=     1 JSym2X= 0.
 GePol: Maximum number of non-zero 1st derivatives   =     208
 CISAX will form     1 AO SS matrices at one time.
 NMat=     1 NSing=     1 JSym2X= 0.
 Leave Link  914 at Tue Apr 21 13:43:53 2020, MaxMem= 12079595520 cpu:     17984.1
 (Enter /scratch/prg/gaussian/bin/g09/linda-exe/l1002.exel)
 Minotr:  Closed shell wavefunction.
          Computing CIS/TD-HF/TD-KS derivatives.
          Using Z-Vector for PSCF gradient.
          Skipping F1 and S1 gradient terms here.
          IDoAtm=11111111111111111111111111111111111111111111111111
          IDoAtm=1
 NEqPCM:  Using equilibrium solvation (IEInf=0, Eps=   2.3741, EpsInf=   2.2383)
          Frozen-core window.
[...]
 Alpha virt. eigenvalues --    0.56530   0.57322   0.57460   0.57607   0.58064
 Alpha virt. eigenvalues --    0.58433   0.58987   0.59610   0.60102   0.60176
 Alpha virt. eigenvalues --    0.60474   0.60776   0.61241   0.61683   0.62309
 Alpha virt. eigenvalues --    0.62666   0.63482   0.63676   0.64404   0.65271
 Alpha virt. eigenvalues --    0.65506   0.66365   0.66835   0.67131   0.67736
 Alpha virt. eigenvalues --    0.67876   0.68180   0.68654   0.69273   0.69725
 Alpha virt. eigenvalues --    0.70317   0.70653   0.71587   0.71739   0.72623
 Alpha virt. eigenvalues --    0.72849   0.73173   0.73335   0.73583   0.73770
 Alpha virt. eigenvalues --    0.74308   0.75182   0.76283   0.76724   0.77877
 Alpha virt. eigenvalues --    0.78366   0.78527   0.79094   0.79557   0.80197
 Alpha virt. eigenvalues --    0.81975   0.82285   0.83342   0.84237   0.86489
 Alpha virt. eigenvalues --    0.88047   0.88786   0.91336   0.91846   0.92019
 Alpha virt. eigenvalues --    0.92372   0.92571   0.92785   0.93498   0.93772
 Alpha virt. eigenvalues --    0.94195   0.94640   0.95162   0.95474   0.95789
 Alpha virt. eigenvalues --    0.95932   0.96042   0.96729   0.97306   0.98190
 Alpha virt. eigenvalues --    0.98492   0.99153   0.99401   1.00001   1.00130
 Alpha virt. eigenvalues --    1.00605   1.00986   1.01288   1.01659   1.02272
 Alpha virt. eigenvalues --    1.02881   1.03865   1.04298   1.04608   1.05273
 Alpha virt. eigenvalues --    1.05567   1.05583   1.05784   1.06258   1.06617
 Alpha virt. eigenvalues --    1.07479   1.07855   1.08340   1.08568   1.09149
 Alpha virt. eigenvalues --    1.09630   1.09758   1.09805   1.10673   1.11145
 Alpha virt. eigenvalues --    1.11899   1.11915   1.12331   1.12559   1.12906
 Alpha virt. eigenvalues --    1.13199   1.14061   1.15858   1.16618   1.17495
 Alpha virt. eigenvalues --    1.19445   1.20222   1.22346   1.22706   1.24417
 Alpha virt. eigenvalues --    1.28306   1.30984   1.31475   1.32035   1.32910
 Alpha virt. eigenvalues --    1.33554   1.34252   1.34974   1.35507   1.35927
 Alpha virt. eigenvalues --    1.36005   1.36652   1.36878   1.37764   1.38854
 Alpha virt. eigenvalues --    1.39649   1.40348   1.40701   1.41529   1.42143
 Alpha virt. eigenvalues --    1.43229   1.44061   1.46170   1.47906   1.48713
 Alpha virt. eigenvalues --    1.49203   1.50339   1.50579   1.51116   1.51479
 Alpha virt. eigenvalues --    1.52017   1.52176   1.52628   1.52792   1.53100
 Alpha virt. eigenvalues --    1.53457   1.54643   1.54787   1.54885   1.55444
 Alpha virt. eigenvalues --    1.56313   1.57774   1.59247   1.59454   1.61275
 Alpha virt. eigenvalues --    1.61996   1.62510   1.62740   1.62896   1.63198
 Alpha virt. eigenvalues --    1.63606   1.64418   1.64533   1.64615   1.64784
 Alpha virt. eigenvalues --    1.65080   1.65642   1.66020   1.66425   1.66592
 Alpha virt. eigenvalues --    1.66875   1.67139   1.67583   1.68022   1.68645
 Alpha virt. eigenvalues --    1.68980   1.69696   1.69892   1.70339   1.70961
 Alpha virt. eigenvalues --    1.71408   1.71645   1.72433   1.73568   1.74097
 Alpha virt. eigenvalues --    1.74642   1.75253   1.75555   1.76903   1.77285
 Alpha virt. eigenvalues --    1.78076   1.78455   1.78728   1.79161   1.79534
 Alpha virt. eigenvalues --    1.79962   1.80379   1.80653   1.81055   1.81585
 Alpha virt. eigenvalues --    1.82416   1.82735   1.83619   1.84104   1.84495
 Alpha virt. eigenvalues --    1.85434   1.85844   1.86496   1.87118   1.87163
 Alpha virt. eigenvalues --    1.87588   1.87675   1.88470   1.88730   1.89065
 Alpha virt. eigenvalues --    1.89101   1.89473   1.90396   1.90533   1.90979
 Alpha virt. eigenvalues --    1.91148   1.92234   1.92742   1.94206   1.94722
 Alpha virt. eigenvalues --    1.95649   1.97415   1.97901   1.98126   1.99277
 Alpha virt. eigenvalues --    1.99590   2.00083   2.00412   2.00702   2.01913
 Alpha virt. eigenvalues --    2.02137   2.02383   2.03264   2.03567   2.03722
 Alpha virt. eigenvalues --    2.03953   2.06947   2.08345   2.10606   2.10727
 Alpha virt. eigenvalues --    2.12345   2.13542   2.15662   2.15716   2.16312
 Alpha virt. eigenvalues --    2.18102   2.18631   2.20808   2.22548   2.22681
 Alpha virt. eigenvalues --    2.23047   2.23220   2.26786   2.27849   2.29328
 Alpha virt. eigenvalues --    2.29911   2.30919   2.31931   2.32141   2.33856
 Alpha virt. eigenvalues --    2.35488   2.36172   2.37996   2.39431   2.40079
 Alpha virt. eigenvalues --    2.40225   2.41030   2.41864   2.43051   2.43914
 Alpha virt. eigenvalues --    2.45167   2.45381   2.46286   2.46613   2.46785
 Alpha virt. eigenvalues --    2.47631   2.49144   2.49323   2.49393   2.50882
 Alpha virt. eigenvalues --    2.52390   2.55601   2.56079   2.58507   2.64393
 Alpha virt. eigenvalues --    2.65482   2.65848   2.66176   2.69161   2.70104
 Alpha virt. eigenvalues --    2.71185   2.72050   2.72883   2.73169   2.74267
 Alpha virt. eigenvalues --    2.76078   2.76501   2.81735   2.83558   2.85670
 Alpha virt. eigenvalues --    2.85962   2.89029   2.89302   2.92535   2.95755
 Alpha virt. eigenvalues --    2.96021   3.00384   3.09930   3.11793   3.14937
 Alpha virt. eigenvalues --    3.17608   3.56321   3.59630   3.59884   3.69098
 Alpha virt. eigenvalues --    3.69406   3.72721   3.75869   3.76585   3.91355
 Alpha virt. eigenvalues --    4.03079   4.07114   4.14481   4.15801
          Condensed to atoms (all electrons):
 Mulliken charges:
               1
     1  N   -0.181480
     2  C    0.119142
     3  C   -0.024809
     4  C   -0.083674
     5  C    0.126849
     6  C    0.002359
     7  C    0.010458
     8  C    0.006935
     9  C    0.009029
    10  C   -0.002856
    11  C   -0.086552
    12  C    0.109708
    13  C    0.117655
    14  C   -0.076171
    15  C   -0.027794
    16  C    0.118106
    17  N   -0.176839
    18  F   -0.232058
    19  B    0.183842
    20  F   -0.219370
    21  H    0.061561
    22  H    0.023517
    23  H    0.021237
    24  H    0.024597
    25  H    0.023865
    26  H    0.024194
    27  H    0.022363
    28  H    0.024526
    29  H    0.060663
    30  C    0.019721
    31  C   -0.036401
    32  C   -0.039990
    33  C    0.015456
    34  C    0.015077
    35  C   -0.003557
    36  H    0.002012
    37  H    0.003375
    38  H    0.011409
    39  H    0.012911
    40  H    0.010837
    41  C    0.021413
    42  C   -0.036885
    43  C   -0.040683
    44  C    0.015481
    45  C    0.015200
    46  C   -0.003961
    47  H    0.001746
    48  H    0.003262
    49  H    0.011271
    50  H    0.012677
    51  H    0.010625
 Sum of Mulliken charges =   0.00000
 Mulliken charges with hydrogens summed into heavy atoms:
               1
     1  N   -0.181480
     2  C    0.180703
     3  C   -0.024809
     4  C   -0.060157
     5  C    0.126849
     6  C    0.023596
     7  C    0.035054
     8  C    0.030800
     9  C    0.033223
    10  C    0.019506
    11  C   -0.086552
    12  C    0.109708
    13  C    0.117655
    14  C   -0.051645
    15  C   -0.027794
    16  C    0.178769
    17  N   -0.176839
    18  F   -0.232058
    19  B    0.183842
    20  F   -0.219370
    30  C    0.019721
    31  C   -0.034389
    32  C   -0.036615
    33  C    0.026866
    34  C    0.027989
    35  C    0.007280
    41  C    0.021413
    42  C   -0.035139
    43  C   -0.037420
    44  C    0.026752
    45  C    0.027877
    46  C    0.006664
 Electronic spatial extent (au):  <R**2>=         179573.0964
 Charge=              0.0000 electrons
 Dipole moment (field-independent basis, Debye):
    X=              1.1315    Y=              6.2288    Z=              1.4036  Tot=              6.4844
 Quadrupole moment (field-independent basis, Debye-Ang):
   XX=           -140.4273   YY=           -261.6127   ZZ=           -179.4100
   XY=             60.9118   XZ=             -3.4454   YZ=            -15.0212
 Traceless Quadrupole moment (field-independent basis, Debye-Ang):
   XX=             53.3894   YY=            -67.7960   ZZ=             14.4067
   XY=             60.9118   XZ=             -3.4454   YZ=            -15.0212
 Octapole moment (field-independent basis, Debye-Ang**2):
  XXX=          -5442.5338  YYY=           5262.1113  ZZZ=             22.1464  XYY=          -2961.4372
  XXY=           1940.0135  XXZ=           -293.2504  XZZ=          -2138.2356  YZZ=           1446.8708
  YYZ=            163.1559  XYZ=             14.0698
 Hexadecapole moment (field-independent basis, Debye-Ang**3):
 XXXX=        -142371.7171 YYYY=         -85375.0434 ZZZZ=          -8744.7128 XXXY=          53338.4882
 XXXZ=          -2802.5171 YYYX=          60869.5999 YYYZ=          -1731.5156 ZZZX=           4235.2691
 ZZZY=           -218.0005 XXYY=         -46986.2973 XXZZ=         -27943.3226 YYZZ=         -13876.3263
 XXYZ=           2583.7522 YYXZ=           1402.1634 ZZXY=          17268.5895
 N-N= 2.847573705729D+03 E-N=-8.894826145429D+03  KE= 1.365482784616D+03

 **********************************************************************

            Population analysis using the CI one-particle density.

 **********************************************************************

          Condensed to atoms (all electrons):
 Mulliken charges:
               1
     1  N   -0.174391
     2  C    0.105830
     3  C    0.061998
     4  C   -0.190184
     5  C    0.234377
     6  C   -0.020305
     7  C    0.008776
     8  C   -0.015634
     9  C    0.007680
    10  C   -0.026760
    11  C   -0.092667
    12  C   -0.166056
    13  C    0.225680
    14  C   -0.180429
    15  C    0.062500
    16  C    0.107938
    17  N   -0.168767
    18  F   -0.232763
    19  B    0.176380
    20  F   -0.221151
    21  H    0.061105
    22  H    0.022265
    23  H    0.021286
    24  H    0.024224
    25  H    0.023705
    26  H    0.023842
    27  H    0.022215
    28  H    0.023057
    29  H    0.060192
    30  C    0.037978
    31  C   -0.016762
    32  C   -0.015462
    33  C    0.018524
    34  C    0.015830
    35  C    0.025833
    36  H    0.002049
    37  H    0.003361
    38  H    0.011399
    39  H    0.012900
    40  H    0.010980
    41  C    0.040077
    42  C   -0.016296
    43  C   -0.015295
    44  C    0.018667
    45  C    0.016012
    46  C    0.026557
    47  H    0.001718
    48  H    0.003284
    49  H    0.011262
    50  H    0.012665
    51  H    0.010775
 Sum of Mulliken charges =   0.00000
 Mulliken charges with hydrogens summed into heavy atoms:
               1
     1  N   -0.174391
     2  C    0.166935
     3  C    0.061998
     4  C   -0.167919
     5  C    0.234377
     6  C    0.000982
     7  C    0.033001
     8  C    0.008071
     9  C    0.031521
    10  C   -0.004544
    11  C   -0.092667
    12  C   -0.166056
    13  C    0.225680
    14  C   -0.157371
    15  C    0.062500
    16  C    0.168131
    17  N   -0.168767
    18  F   -0.232763
    19  B    0.176380
    20  F   -0.221151
    30  C    0.037978
    31  C   -0.014713
    32  C   -0.012100
    33  C    0.029923
    34  C    0.028729
    35  C    0.036813
    41  C    0.040077
    42  C   -0.014578
    43  C   -0.012012
    44  C    0.029929
    45  C    0.028677
    46  C    0.037333
 Electronic spatial extent (au):  <R**2>=         179495.2920
 Charge=              0.0000 electrons
 Dipole moment (field-independent basis, Debye):
    X=              1.3641    Y=              2.1867    Z=              1.9062  Tot=              3.2056
 Quadrupole moment (field-independent basis, Debye-Ang):
   XX=           -113.6377   YY=           -202.0812   ZZ=           -161.0816
   XY=             11.6345   XZ=            -17.3374   YZ=            -19.7107
 Traceless Quadrupole moment (field-independent basis, Debye-Ang):
   XX=             45.2958   YY=            -43.1477   ZZ=             -2.1481
   XY=             11.6345   XZ=            -17.3374   YZ=            -19.7107
 Octapole moment (field-independent basis, Debye-Ang**2):
  XXX=          -4572.1240  YYY=           4584.5410  ZZZ=             39.2766  XYY=          -2248.3725
  XXY=           1143.4038  XXZ=           -696.0825  XZZ=          -1927.9830  YZZ=           1277.8272
  YYZ=            207.7782  XYZ=            138.7958
 Hexadecapole moment (field-independent basis, Debye-Ang**3):
 XXXX=        -121594.9352 YYYY=         -78379.2889 ZZZZ=          -8332.4983 XXXY=          38916.1473
 XXXZ=         -10892.7920 YYYX=          52807.3894 YYYZ=          -2162.9265 ZZZX=           4038.2406
 ZZZY=           -378.6638 XXYY=         -36640.2794 XXZZ=         -25121.0642 YYZZ=         -12320.5293
 XXYZ=           6218.6080 YYXZ=            286.7008 ZZXY=          15334.6207
 N-N= 2.847573705729D+03 E-N=-8.895672162553D+03  KE= 1.365563353855D+03

 **********************************************************************

            Population analysis using the CI density.

 **********************************************************************

          Condensed to atoms (all electrons):
 Mulliken charges:
               1
     1  N   -0.180456
     2  C    0.110097
     3  C   -0.005351
     4  C   -0.108446
     5  C    0.154606
     6  C   -0.007062
     7  C    0.006770
     8  C   -0.006693
     9  C    0.005644
    10  C   -0.013196
    11  C   -0.081928
    12  C    0.051794
    13  C    0.144293
    14  C   -0.099686
    15  C   -0.007899
    16  C    0.110242
    17  N   -0.175316
    18  F   -0.233362
    19  B    0.175656
    20  F   -0.221056
    21  H    0.057647
    22  H    0.015632
    23  H    0.010345
    24  H    0.016157
    25  H    0.014434
    26  H    0.015765
    27  H    0.011610
    28  H    0.016850
    29  H    0.057175
    30  C    0.015167
    31  C   -0.023812
    32  C   -0.025126
    33  C    0.017196
    34  C    0.015355
    35  C    0.008442
    36  H    0.011053
    37  H    0.010571
    38  H    0.016900
    39  H    0.017768
    40  H    0.017919
    41  C    0.016491
    42  C   -0.023725
    43  C   -0.025310
    44  C    0.017359
    45  C    0.015581
    46  C    0.008616
    47  H    0.011257
    48  H    0.010899
    49  H    0.017124
    50  H    0.017868
    51  H    0.018141
 Sum of Mulliken charges =   0.00000
 Mulliken charges with hydrogens summed into heavy atoms:
               1
     1  N   -0.180456
     2  C    0.167744
     3  C   -0.005351
     4  C   -0.092813
     5  C    0.154606
     6  C    0.003282
     7  C    0.022927
     8  C    0.007741
     9  C    0.021409
    10  C   -0.001586
    11  C   -0.081928
    12  C    0.051794
    13  C    0.144293
    14  C   -0.082836
    15  C   -0.007899
    16  C    0.167418
    17  N   -0.175316
    18  F   -0.233362
    19  B    0.175656
    20  F   -0.221056
    30  C    0.015167
    31  C   -0.012759
    32  C   -0.014556
    33  C    0.034097
    34  C    0.033123
    35  C    0.026361
    41  C    0.016491
    42  C   -0.012468
    43  C   -0.014412
    44  C    0.034483
    45  C    0.033449
    46  C    0.026757
 Electronic spatial extent (au):  <R**2>=         179523.4366
 Charge=              0.0000 electrons
 Dipole moment (field-independent basis, Debye):
    X=              1.3095    Y=              3.7240    Z=              1.7537  Tot=              4.3196
 Quadrupole moment (field-independent basis, Debye-Ang):
   XX=           -120.9861   YY=           -228.0012   ZZ=           -165.6687
   XY=             30.1234   XZ=            -14.2066   YZ=            -18.4967
 Traceless Quadrupole moment (field-independent basis, Debye-Ang):
   XX=             50.5659   YY=            -56.4492   ZZ=              5.8833
   XY=             30.1234   XZ=            -14.2066   YZ=            -18.4967
 Octapole moment (field-independent basis, Debye-Ang**2):
  XXX=          -4812.1714  YYY=           4899.3743  ZZZ=             38.0969  XYY=          -2555.6984
  XXY=           1420.2580  XXZ=           -599.5610  XZZ=          -1982.0630  YZZ=           1321.4881
  YYZ=            197.8792  XYZ=            106.1260
 Hexadecapole moment (field-independent basis, Debye-Ang**3):
 XXXX=        -127194.5276 YYYY=         -81719.9758 ZZZZ=          -8359.6708 XXXY=          43542.1806
 XXXZ=          -8992.4025 YYYX=          56519.6667 YYYZ=          -2083.6503 ZZZX=           4057.9312
 ZZZY=           -369.3697 XXYY=         -40769.6846 XXZZ=         -25797.8731 YYZZ=         -12718.7940
 XXYZ=           5267.0430 YYXZ=            595.5919 ZZXY=          15849.2528
 N-N= 2.847573705729D+03 E-N=-8.895327043392D+03  KE= 1.365580417813D+03
 No NMR shielding tensors so no spin-rotation constants.
 Leave Link  601 at Wed Apr 22 18:21:36 2020, MaxMem= 12079595520 cpu:         8.8
 (Enter /scratch/prg/gaussian/bin/g09/l9999.exe)
 1\1\GINC-FIZIKA31-IB\FOpt\RM062X TD-FC\CC-pVDZ\C27H19B1F2N2\ROOT\22-Ap
 r-2020\0\\#p m062x cc-pvdz scrf=(cpcm,solvent=Toluene) td=(nstate=6,ro
 ot=1) opt=tight nosymm density=all int=ultrafine fchk\\BODIPY-phenyl w
 ith phenyls, initial S1\\0,1\N,12.6236653136,-9.450596481,-0.988747738
 8\C,13.6376694191,-9.874870792,-1.7383462373\C,14.3761684417,-8.762701
 9666,-2.2326254178\C,13.7326379231,-7.6115540035,-1.7268785795\C,12.65
 73120499,-8.0398976748,-0.9346157196\C,10.5097624793,-5.1443865578,-0.
 1597131439\C,10.4957906818,-3.7539869742,-0.0996261402\C,11.6876204656
 ,-3.0438917909,0.053677381\C,12.8942335357,-3.7378731813,0.150575872\C
 ,12.9129191038,-5.1286921346,0.0883965037\C,11.7202261834,-5.855996904
 6,-0.0728351332\C,11.7210249131,-7.324811428,-0.1370387794\C,10.821572
 3628,-8.074643537,0.6732441992\C,9.9765863259,-7.675933701,1.718206942
 2\C,9.4141601039,-8.8433390101,2.2806907709\C,9.9471541847,-9.93433076
 31,1.5358486186\N,10.7638903225,-9.4810423924,0.5889718312\F,11.944012
 7015,-11.5224446715,0.0594069824\B,11.4598655989,-10.3404011337,-0.490
 3557879\F,10.5808629815,-10.6151565539,-1.5388720419\H,13.7718906797,-
 10.9376729461,-1.9247246261\H,14.0128117677,-6.5778185337,-1.896037641
 \H,9.5779194287,-5.6946034329,-0.300058802\H,9.5478823111,-3.220804276
 1,-0.1817757941\H,11.6756166188,-1.9545783691,0.1004899758\H,13.829087
 1392,-3.192818332,0.2867418845\H,13.8563224741,-5.6643358982,0.2006518
 6\H,9.8478051402,-6.6529639768,2.056442716\H,9.7634071481,-11.00134311
 62,1.6347480603\C,15.5407846255,-8.8336601842,-3.0995298681\C,16.09100
 81791,-7.6633971098,-3.6594949496\C,16.1501500253,-10.0688278622,-3.40
 06107739\C,17.2050890681,-7.7273973026,-4.4870429394\C,17.2639426381,-
 10.1285734796,-4.228293215\C,17.7976948559,-8.9591246017,-4.7760819236
 \H,15.6318565697,-6.697332964,-3.4486130406\H,15.7524569564,-10.989503
 8345,-2.9728688108\H,17.6148947487,-6.8110691055,-4.9129318855\H,17.72
 23478647,-11.0933380088,-4.4471374193\H,18.6721592416,-9.0077393001,-5
 .4256053909\C,8.4834800026,-8.9476056555,3.391820551\C,7.9162835948,-7
 .7908603609,3.9631707456\C,8.1258335558,-10.2019184419,3.9274355715\C,
 7.0279756687,-7.8862496378,5.0269993706\C,7.2371919572,-10.2929525504,
 4.9908149608\C,6.6834918879,-9.1365327109,5.5466768693\H,8.1703172271,
 -6.8105329899,3.5593702126\H,8.5565540612,-11.113053893,3.5114430126\H
 ,6.5976724182,-6.9800976324,5.4544315331\H,6.9747608659,-11.2720352636
 ,5.3924168639\H,5.9858556533,-9.2098116607,6.3814448658\\Version=EM64L
 -G09RevD.01\HF=-1374.1638592\RMSD=4.991e-09\RMSF=7.822e-07\Dipole=0.51
 51777,1.4651414,0.6899771\Quadrupole=37.5945121,-41.9686205,4.3741084,
 22.3960048,-10.5622793,-13.7518464\PG=C01 [X(C27H19B1F2N2)]\\@


 When I told the people of Northern Ireland that I was
 an atheist, a woman in the audience stood up and said,
 "Yes, but is it the God of the Catholics or the God
 of the Protestants in whom you don't believe?"
                               -- Quentin Crisp
 Warning:  fchk array  ILSW element          12 has value       6710886400000 set to -1.
 Job cpu time:       0 days  0 hours 18 minutes 26.2 seconds.
 File lengths (MBytes):  RWF=   1111 Int=      0 D2E=      0 Chk=     90 Scr=      1
 Normal termination of Gaussian 09 at Wed Apr 22 18:21:37 2020.
