 Entering Gaussian System, Link 0=/lustre1/prg/gaussian/bin/G16_C01_Linda_AVX/g16/g16
 Initial command:
 /lustre1/prg/gaussian/bin/G16_C01_Linda_AVX/g16/l1.exe "/lustre1/prg/webmo/data/webmo20/toliste/4371/scratch/Gau-30276.inp" -scrdir="/lustre1/prg/webmo/data/webmo20/toliste/4371/scratch/"
 Default is to use a total of  16 processors:
                               16 via shared-memory
                                1 via Linda
 Entering Link 1 = /lustre1/prg/gaussian/bin/G16_C01_Linda_AVX/g16/l1.exe PID=     30277.
  
 Copyright (c) 1988-2019, Gaussian, Inc.  All Rights Reserved.
  
 This is part of the Gaussian(R) 16 program.  It is based on
 the Gaussian(R) 09 system (copyright 2009, Gaussian, Inc.),
 the Gaussian(R) 03 system (copyright 2003, Gaussian, Inc.),
 the Gaussian(R) 98 system (copyright 1998, Gaussian, Inc.),
 the Gaussian(R) 94 system (copyright 1995, Gaussian, Inc.),
 the Gaussian 92(TM) system (copyright 1992, Gaussian, Inc.),
 the Gaussian 90(TM) system (copyright 1990, Gaussian, Inc.),
 the Gaussian 88(TM) system (copyright 1988, Gaussian, Inc.),
 the Gaussian 86(TM) system (copyright 1986, Carnegie Mellon
 University), and the Gaussian 82(TM) system (copyright 1983,
 Carnegie Mellon University). Gaussian is a federally registered
 trademark of Gaussian, Inc.
  
 This software contains proprietary and confidential information,
 including trade secrets, belonging to Gaussian, Inc.
  
 This software is provided under written license and may be
 used, copied, transmitted, or stored only in accord with that
 written license.
  
 The following legend is applicable only to US Government
 contracts under FAR:
  
                    RESTRICTED RIGHTS LEGEND
  
 Use, reproduction and disclosure by the US Government is
 subject to restrictions as set forth in subparagraphs (a)
 and (c) of the Commercial Computer Software - Restricted
 Rights clause in FAR 52.227-19.
  
 Gaussian, Inc.
 340 Quinnipiac St., Bldg. 40, Wallingford CT 06492
  
  
 ---------------------------------------------------------------
 Warning -- This program may not be used in any manner that
 competes with the business of Gaussian, Inc. or will provide
 assistance to any competitor of Gaussian, Inc.  The licensee
 of this program is prohibited from giving any competitor of
 Gaussian, Inc. access to this program.  By using this program,
 the user acknowledges that Gaussian, Inc. is engaged in the
 business of creating and licensing software in the field of
 computational chemistry and represents and warrants to the
 licensee that it is not a competitor of Gaussian, Inc. and that
 it will not use this program in any manner prohibited above.
 ---------------------------------------------------------------
  

 Cite this work as:
 Gaussian 16, Revision C.01,
 M. J. Frisch, G. W. Trucks, H. B. Schlegel, G. E. Scuseria, 
 M. A. Robb, J. R. Cheeseman, G. Scalmani, V. Barone, 
 G. A. Petersson, H. Nakatsuji, X. Li, M. Caricato, A. V. Marenich, 
 J. Bloino, B. G. Janesko, R. Gomperts, B. Mennucci, H. P. Hratchian, 
 J. V. Ortiz, A. F. Izmaylov, J. L. Sonnenberg, D. Williams-Young, 
 F. Ding, F. Lipparini, F. Egidi, J. Goings, B. Peng, A. Petrone, 
 T. Henderson, D. Ranasinghe, V. G. Zakrzewski, J. Gao, N. Rega, 
 G. Zheng, W. Liang, M. Hada, M. Ehara, K. Toyota, R. Fukuda, 
 J. Hasegawa, M. Ishida, T. Nakajima, Y. Honda, O. Kitao, H. Nakai, 
 T. Vreven, K. Throssell, J. A. Montgomery, Jr., J. E. Peralta, 
 F. Ogliaro, M. J. Bearpark, J. J. Heyd, E. N. Brothers, K. N. Kudin, 
 V. N. Staroverov, T. A. Keith, R. Kobayashi, J. Normand, 
 K. Raghavachari, A. P. Rendell, J. C. Burant, S. S. Iyengar, 
 J. Tomasi, M. Cossi, J. M. Millam, M. Klene, C. Adamo, R. Cammi, 
 J. W. Ochterski, R. L. Martin, K. Morokuma, O. Farkas, 
 J. B. Foresman, and D. J. Fox, Gaussian, Inc., Wallingford CT, 2019.
 
 ******************************************
 Gaussian 16:  ES64L-G16RevC.01  3-Jul-2019
                31-Jan-2022 
 ******************************************
 %LindaWorkers=fizika123,fizika124,fizika126,fizika127,fizika128,fizika129,fizika
 131,fizika132
 %chk=bodipy.chk
 SetLPE:  input flags=" -opt "Tsnet.Node.lindarsharg: ssh" "
 SetLPE:    new flags=" -opt "Tsnet.Node.lindarsharg: ssh" -opt 'Tsnet.Node.lindarsharg: ssh'  -nodelist 'fizika123.fizika.bullx fizika124.fizika.bullx fizika126.fizika.bullx fizika127.fizika.bullx fizika128.fizika.bullx fizika129.fizika.bullx fizika131.fizika.bullx fizika132.fizika.bullx' -env GAUSS_MDEF=14763950080 -env GAUSS_EXEDIR="/lustre1/prg/gaussian/bin/G16_C01_Linda_AVX/g16/bsd:/lustre1/prg/gaussian/bin/G16_C01_Linda_AVX/g16/private:/lustre1/prg/gaussian/bin/G16_C01_Linda_AVX/g16""
 Will use up to    8 processors via Linda.
 ----------------------------------------------------------------------
 #p m062x cc-pvdz scrf=(cpcm,solvent=n,n-DiMethylFormamide) td=(nstate=
 6,root=1) opt=tight nosymm density=all int=ultrafine fchk
 ----------------------------------------------------------------------
 1/7=10,18=20,19=15,26=6,38=1/1,3;
 2/9=110,12=2,15=1,17=6,18=5,40=1/2;
 3/5=16,11=9,25=1,30=1,70=2101,71=1,72=148,74=-55,75=-5/1,2,3,8;
 4//1;
 5/5=2,38=5,53=148/2;
 8/6=1,10=1,107=1,108=6/1;
 9/8=1,15=2,30=10,41=6,42=1,70=2/14;
 10/5=4,28=1,31=1/2;
 6/7=2,8=2,9=2,10=2,22=-2/1;
 7/12=6,13=5,14=1,30=1/1,2,3,16;
 1/7=10,18=20,19=15,26=6/3(2);
 2/9=110,15=1/2;
 99//99;
 2/9=110,15=1/2;
 3/5=16,11=9,25=1,30=1,70=2105,71=1,72=148,74=-55,75=-5/1,2,3,8;
 4/5=5,16=3,69=1/1;
 5/5=2,38=5,53=148/2;
 8/6=1,10=1,107=1,108=6/1;
 9/8=1,15=2,30=10,41=6,42=1,49=4,70=2/14;
 10/5=4,28=1,31=1/2;
 7/12=6,13=5,14=1,30=1/1,2,3,16;
 1/7=10,18=20,19=15,26=6/3(-8);
 2/9=110,15=1/2;
 6/7=2,8=2,9=2,10=2,22=-2/1;
 99/9=10/99;
 Leave Link    1 at Mon Jan 31 14:40:36 2022, MaxMem=           0 cpu:               2.4 elap:               0.2
 (Enter /lustre1/prg/gaussian/bin/G16_C01_Linda_AVX/g16/l101.exe)
 --------------------------------------
 BDP-PP-phenyl, optimized S1 in toluene
 --------------------------------------
 Symbolic Z-matrix:
 Charge =  0 Multiplicity = 1
 N                     12.62367  -9.4506   -0.98875 
 C                     13.63767  -9.87487  -1.73835 
 C                     14.37617  -8.7627   -2.23263 
 C                     13.73264  -7.61155  -1.72688 
 C                     12.65731  -8.0399   -0.93462 
 C                     10.50976  -5.14439  -0.15971 
 C                     10.49579  -3.75399  -0.09963 
 C                     11.68762  -3.04389   0.05368 
 C                     12.89423  -3.73787   0.15058 
 C                     12.91292  -5.12869   0.0884 
 C                     11.72023  -5.856    -0.07284 
 C                     11.72103  -7.32481  -0.13704 
 C                     10.82157  -8.07464   0.67324 
 C                     9.97659  -7.67593   1.71821 
 C                     9.41416  -8.84334   2.28069 
 C                     9.94715  -9.93433   1.53585 
 N                     10.76389  -9.48104   0.58897 
 F                     11.94401  -11.52245   0.05941 
 B                     11.45987  -10.3404  -0.49036 
 F                     10.58086  -10.61516  -1.53887 
 H                     13.77189  -10.93767  -1.92473 
 H                     14.01281  -6.57782  -1.89604 
 H                     9.57792  -5.6946   -0.30006 
 H                     9.54788  -3.2208   -0.18178 
 H                     11.67562  -1.95458   0.10049 
 H                     13.82909  -3.19282   0.28674 
 H                     13.85632  -5.66434   0.20065 
 H                     9.84781  -6.65296   2.05644 
 H                     9.76341  -11.00134   1.63475 
 C                     15.54078  -8.83366  -3.09953 
 C                     16.09101  -7.6634   -3.6595 
 C                     16.15015  -10.06883  -3.40061 
 C                     17.20509  -7.7274   -4.48704 
 C                     17.26394  -10.12857  -4.22829 
 C                     17.7977  -8.95913  -4.77608 
 H                     15.63186  -6.69733  -3.44861 
 H                     15.75246  -10.9895  -2.97287 
 H                     17.6149  -6.81107  -4.91293 
 H                     17.72235  -11.09334  -4.44714 
 H                     18.67216  -9.00774  -5.42561 
 C                     8.48348  -8.94761   3.39182 
 C                     7.91628  -7.79086   3.96317 
 C                     8.12583  -10.20192   3.92744 
 C                     7.02798  -7.88625   5.027 
 C                     7.23719  -10.29295   4.99082 
 C                     6.68349  -9.13653   5.54668 
 H                     8.17032  -6.81053   3.55937 
 H                     8.55655  -11.11305   3.51144 
 H                     6.59767  -6.9801    5.45443 
 H                     6.97476  -11.27204   5.39242 
 H                     5.98586  -9.20981   6.38145 
 
 ITRead=  0  0  0  0  0  0  0  0  0  0  0  0  0  0  0  0  0  0  0  0
 ITRead=  0  0  0  0  0  0  0  0  0  0  0  0  0  0  0  0  0  0  0  0
 ITRead=  0  0  0  0  0  0  0  0  0  0  0
 MicOpt= -1 -1 -1 -1 -1 -1 -1 -1 -1 -1 -1 -1 -1 -1 -1 -1 -1 -1 -1 -1
 MicOpt= -1 -1 -1 -1 -1 -1 -1 -1 -1 -1 -1 -1 -1 -1 -1 -1 -1 -1 -1 -1
 MicOpt= -1 -1 -1 -1 -1 -1 -1 -1 -1 -1 -1
 NAtoms=     51 NQM=       51 NQMF=       0 NMMI=      0 NMMIF=      0
                NMic=       0 NMicF=      0.
                    Isotopes and Nuclear Properties:
 (Nuclear quadrupole moments (NQMom) in fm**2, nuclear magnetic moments (NMagM)
  in nuclear magnetons)

  Atom         1           2           3           4           5           6           7           8           9          10
 IAtWgt=          14          12          12          12          12          12          12          12          12          12
 AtmWgt=  14.0030740  12.0000000  12.0000000  12.0000000  12.0000000  12.0000000  12.0000000  12.0000000  12.0000000  12.0000000
 NucSpn=           2           0           0           0           0           0           0           0           0           0
 AtZEff=  -0.0000000  -0.0000000  -0.0000000  -0.0000000  -0.0000000  -0.0000000  -0.0000000  -0.0000000  -0.0000000  -0.0000000
 NQMom=    2.0440000   0.0000000   0.0000000   0.0000000   0.0000000   0.0000000   0.0000000   0.0000000   0.0000000   0.0000000
 NMagM=    0.4037610   0.0000000   0.0000000   0.0000000   0.0000000   0.0000000   0.0000000   0.0000000   0.0000000   0.0000000
 AtZNuc=   7.0000000   6.0000000   6.0000000   6.0000000   6.0000000   6.0000000   6.0000000   6.0000000   6.0000000   6.0000000

  Atom        11          12          13          14          15          16          17          18          19          20
 IAtWgt=          12          12          12          12          12          12          14          19          11          19
 AtmWgt=  12.0000000  12.0000000  12.0000000  12.0000000  12.0000000  12.0000000  14.0030740  18.9984032  11.0093053  18.9984032
 NucSpn=           0           0           0           0           0           0           2           1           3           1
 AtZEff=  -0.0000000  -0.0000000  -0.0000000  -0.0000000  -0.0000000  -0.0000000  -0.0000000  -0.0000000  -0.0000000  -0.0000000
 NQMom=    0.0000000   0.0000000   0.0000000   0.0000000   0.0000000   0.0000000   2.0440000   0.0000000   4.0590000   0.0000000
 NMagM=    0.0000000   0.0000000   0.0000000   0.0000000   0.0000000   0.0000000   0.4037610   2.6288670   2.6886370   2.6288670
 AtZNuc=   6.0000000   6.0000000   6.0000000   6.0000000   6.0000000   6.0000000   7.0000000   9.0000000   5.0000000   9.0000000

  Atom        21          22          23          24          25          26          27          28          29          30
 IAtWgt=           1           1           1           1           1           1           1           1           1          12
 AtmWgt=   1.0078250   1.0078250   1.0078250   1.0078250   1.0078250   1.0078250   1.0078250   1.0078250   1.0078250  12.0000000
 NucSpn=           1           1           1           1           1           1           1           1           1           0
 AtZEff=  -0.0000000  -0.0000000  -0.0000000  -0.0000000  -0.0000000  -0.0000000  -0.0000000  -0.0000000  -0.0000000  -0.0000000
 NQMom=    0.0000000   0.0000000   0.0000000   0.0000000   0.0000000   0.0000000   0.0000000   0.0000000   0.0000000   0.0000000
 NMagM=    2.7928460   2.7928460   2.7928460   2.7928460   2.7928460   2.7928460   2.7928460   2.7928460   2.7928460   0.0000000
 AtZNuc=   1.0000000   1.0000000   1.0000000   1.0000000   1.0000000   1.0000000   1.0000000   1.0000000   1.0000000   6.0000000

  Atom        31          32          33          34          35          36          37          38          39          40
 IAtWgt=          12          12          12          12          12           1           1           1           1           1
 AtmWgt=  12.0000000  12.0000000  12.0000000  12.0000000  12.0000000   1.0078250   1.0078250   1.0078250   1.0078250   1.0078250
 NucSpn=           0           0           0           0           0           1           1           1           1           1
 AtZEff=  -0.0000000  -0.0000000  -0.0000000  -0.0000000  -0.0000000  -0.0000000  -0.0000000  -0.0000000  -0.0000000  -0.0000000
 NQMom=    0.0000000   0.0000000   0.0000000   0.0000000   0.0000000   0.0000000   0.0000000   0.0000000   0.0000000   0.0000000
 NMagM=    0.0000000   0.0000000   0.0000000   0.0000000   0.0000000   2.7928460   2.7928460   2.7928460   2.7928460   2.7928460
 AtZNuc=   6.0000000   6.0000000   6.0000000   6.0000000   6.0000000   1.0000000   1.0000000   1.0000000   1.0000000   1.0000000

  Atom        41          42          43          44          45          46          47          48          49          50
 IAtWgt=          12          12          12          12          12          12           1           1           1           1
 AtmWgt=  12.0000000  12.0000000  12.0000000  12.0000000  12.0000000  12.0000000   1.0078250   1.0078250   1.0078250   1.0078250
 NucSpn=           0           0           0           0           0           0           1           1           1           1
 AtZEff=  -0.0000000  -0.0000000  -0.0000000  -0.0000000  -0.0000000  -0.0000000  -0.0000000  -0.0000000  -0.0000000  -0.0000000
 NQMom=    0.0000000   0.0000000   0.0000000   0.0000000   0.0000000   0.0000000   0.0000000   0.0000000   0.0000000   0.0000000
 NMagM=    0.0000000   0.0000000   0.0000000   0.0000000   0.0000000   0.0000000   2.7928460   2.7928460   2.7928460   2.7928460
 AtZNuc=   6.0000000   6.0000000   6.0000000   6.0000000   6.0000000   6.0000000   1.0000000   1.0000000   1.0000000   1.0000000

  Atom        51
 IAtWgt=           1
 AtmWgt=   1.0078250
 NucSpn=           1
 AtZEff=  -0.0000000
 NQMom=    0.0000000
 NMagM=    2.7928460
 AtZNuc=   1.0000000
 Leave Link  101 at Mon Jan 31 14:40:37 2022, MaxMem= 14763950080 cpu:              11.6 elap:               0.7
 (Enter /lustre1/prg/gaussian/bin/G16_C01_Linda_AVX/g16/l103.exe)

 GradGradGradGradGradGradGradGradGradGradGradGradGradGradGradGradGradGrad
 Berny optimization.
 Initialization pass.
                           ----------------------------
                           !    Initial Parameters    !
                           ! (Angstroms and Degrees)  !
 --------------------------                            --------------------------
 ! Name  Definition              Value          Derivative Info.                !
 --------------------------------------------------------------------------------
 ! R1    R(1,2)                  1.3305         estimate D2E/DX2                !
 ! R2    R(1,5)                  1.4121         estimate D2E/DX2                !
 ! R3    R(1,19)                 1.5474         estimate D2E/DX2                !
 ! R4    R(2,3)                  1.4236         estimate D2E/DX2                !
 ! R5    R(2,21)                 1.0873         estimate D2E/DX2                !
 ! R6    R(3,4)                  1.4125         estimate D2E/DX2                !
 ! R7    R(3,30)                 1.4536         estimate D2E/DX2                !
 ! R8    R(4,5)                  1.4027         estimate D2E/DX2                !
 ! R9    R(4,22)                 1.0843         estimate D2E/DX2                !
 ! R10   R(5,12)                 1.4227         estimate D2E/DX2                !
 ! R11   R(6,7)                  1.3918         estimate D2E/DX2                !
 ! R12   R(6,11)                 1.4068         estimate D2E/DX2                !
 ! R13   R(6,23)                 1.0912         estimate D2E/DX2                !
 ! R14   R(7,8)                  1.3958         estimate D2E/DX2                !
 ! R15   R(7,24)                 1.0907         estimate D2E/DX2                !
 ! R16   R(8,9)                  1.3953         estimate D2E/DX2                !
 ! R17   R(8,25)                 1.0904         estimate D2E/DX2                !
 ! R18   R(9,10)                 1.3923         estimate D2E/DX2                !
 ! R19   R(9,26)                 1.0907         estimate D2E/DX2                !
 ! R20   R(10,11)                1.4062         estimate D2E/DX2                !
 ! R21   R(10,27)                1.0907         estimate D2E/DX2                !
 ! R22   R(11,12)                1.4702         estimate D2E/DX2                !
 ! R23   R(12,13)                1.424          estimate D2E/DX2                !
 ! R24   R(13,14)                1.4018         estimate D2E/DX2                !
 ! R25   R(13,17)                1.4101         estimate D2E/DX2                !
 ! R26   R(14,15)                1.4126         estimate D2E/DX2                !
 ! R27   R(14,28)                1.0851         estimate D2E/DX2                !
 ! R28   R(15,16)                1.4245         estimate D2E/DX2                !
 ! R29   R(15,41)                1.4532         estimate D2E/DX2                !
 ! R30   R(16,17)                1.3301         estimate D2E/DX2                !
 ! R31   R(16,29)                1.0872         estimate D2E/DX2                !
 ! R32   R(17,19)                1.5453         estimate D2E/DX2                !
 ! R33   R(18,19)                1.3906         estimate D2E/DX2                !
 ! R34   R(19,20)                1.3955         estimate D2E/DX2                !
 ! R35   R(30,31)                1.4092         estimate D2E/DX2                !
 ! R36   R(30,32)                1.4098         estimate D2E/DX2                !
 ! R37   R(31,33)                1.3893         estimate D2E/DX2                !
 ! R38   R(31,36)                1.0902         estimate D2E/DX2                !
 ! R39   R(32,34)                1.3889         estimate D2E/DX2                !
 ! R40   R(32,37)                1.0903         estimate D2E/DX2                !
 ! R41   R(33,35)                1.3971         estimate D2E/DX2                !
 ! R42   R(33,38)                1.0904         estimate D2E/DX2                !
 ! R43   R(34,35)                1.3973         estimate D2E/DX2                !
 ! R44   R(34,39)                1.0903         estimate D2E/DX2                !
 ! R45   R(35,40)                1.0904         estimate D2E/DX2                !
 ! R46   R(41,42)                1.4093         estimate D2E/DX2                !
 ! R47   R(41,43)                1.41           estimate D2E/DX2                !
 ! R48   R(42,44)                1.3892         estimate D2E/DX2                !
 ! R49   R(42,47)                1.0902         estimate D2E/DX2                !
 ! R50   R(43,45)                1.3888         estimate D2E/DX2                !
 ! R51   R(43,48)                1.0903         estimate D2E/DX2                !
 ! R52   R(44,46)                1.3971         estimate D2E/DX2                !
 ! R53   R(44,49)                1.0904         estimate D2E/DX2                !
 ! R54   R(45,46)                1.3975         estimate D2E/DX2                !
 ! R55   R(45,50)                1.0903         estimate D2E/DX2                !
 ! R56   R(46,51)                1.0904         estimate D2E/DX2                !
 ! A1    A(2,1,5)              108.7844         estimate D2E/DX2                !
 ! A2    A(2,1,19)             124.8401         estimate D2E/DX2                !
 ! A3    A(5,1,19)             125.4509         estimate D2E/DX2                !
 ! A4    A(1,2,3)              109.9901         estimate D2E/DX2                !
 ! A5    A(1,2,21)             120.1558         estimate D2E/DX2                !
 ! A6    A(3,2,21)             129.7966         estimate D2E/DX2                !
 ! A7    A(2,3,4)              106.0238         estimate D2E/DX2                !
 ! A8    A(2,3,30)             125.7723         estimate D2E/DX2                !
 ! A9    A(4,3,30)             128.1969         estimate D2E/DX2                !
 ! A10   A(3,4,5)              107.6164         estimate D2E/DX2                !
 ! A11   A(3,4,22)             127.1137         estimate D2E/DX2                !
 ! A12   A(5,4,22)             125.2637         estimate D2E/DX2                !
 ! A13   A(1,5,4)              107.5586         estimate D2E/DX2                !
 ! A14   A(1,5,12)             120.5253         estimate D2E/DX2                !
 ! A15   A(4,5,12)             131.8875         estimate D2E/DX2                !
 ! A16   A(7,6,11)             120.7505         estimate D2E/DX2                !
 ! A17   A(7,6,23)             120.0466         estimate D2E/DX2                !
 ! A18   A(11,6,23)            119.186          estimate D2E/DX2                !
 ! A19   A(6,7,8)              120.2926         estimate D2E/DX2                !
 ! A20   A(6,7,24)             119.5939         estimate D2E/DX2                !
 ! A21   A(8,7,24)             120.1114         estimate D2E/DX2                !
 ! A22   A(7,8,9)              119.5378         estimate D2E/DX2                !
 ! A23   A(7,8,25)             120.2359         estimate D2E/DX2                !
 ! A24   A(9,8,25)             120.226          estimate D2E/DX2                !
 ! A25   A(8,9,10)             120.353          estimate D2E/DX2                !
 ! A26   A(8,9,26)             120.0879         estimate D2E/DX2                !
 ! A27   A(10,9,26)            119.5557         estimate D2E/DX2                !
 ! A28   A(9,10,11)            120.689          estimate D2E/DX2                !
 ! A29   A(9,10,27)            119.8413         estimate D2E/DX2                !
 ! A30   A(11,10,27)           119.4347         estimate D2E/DX2                !
 ! A31   A(6,11,10)            118.3745         estimate D2E/DX2                !
 ! A32   A(6,11,12)            120.2063         estimate D2E/DX2                !
 ! A33   A(10,11,12)           121.4164         estimate D2E/DX2                !
 ! A34   A(5,12,11)            121.8017         estimate D2E/DX2                !
 ! A35   A(5,12,13)            118.0346         estimate D2E/DX2                !
 ! A36   A(11,12,13)           120.0574         estimate D2E/DX2                !
 ! A37   A(12,13,14)           130.9316         estimate D2E/DX2                !
 ! A38   A(12,13,17)           121.132          estimate D2E/DX2                !
 ! A39   A(14,13,17)           107.6729         estimate D2E/DX2                !
 ! A40   A(13,14,15)           107.5641         estimate D2E/DX2                !
 ! A41   A(13,14,28)           124.8938         estimate D2E/DX2                !
 ! A42   A(15,14,28)           127.4242         estimate D2E/DX2                !
 ! A43   A(14,15,16)           106.0071         estimate D2E/DX2                !
 ! A44   A(14,15,41)           128.2249         estimate D2E/DX2                !
 ! A45   A(16,15,41)           125.7679         estimate D2E/DX2                !
 ! A46   A(15,16,17)           109.937          estimate D2E/DX2                !
 ! A47   A(15,16,29)           129.8552         estimate D2E/DX2                !
 ! A48   A(17,16,29)           120.1986         estimate D2E/DX2                !
 ! A49   A(13,17,16)           108.8128         estimate D2E/DX2                !
 ! A50   A(13,17,19)           125.3089         estimate D2E/DX2                !
 ! A51   A(16,17,19)           125.7522         estimate D2E/DX2                !
 ! A52   A(1,19,17)            104.1176         estimate D2E/DX2                !
 ! A53   A(1,19,18)            110.748          estimate D2E/DX2                !
 ! A54   A(1,19,20)            110.1778         estimate D2E/DX2                !
 ! A55   A(17,19,18)           110.6943         estimate D2E/DX2                !
 ! A56   A(17,19,20)           110.5236         estimate D2E/DX2                !
 ! A57   A(18,19,20)           110.424          estimate D2E/DX2                !
 ! A58   A(3,30,31)            120.6159         estimate D2E/DX2                !
 ! A59   A(3,30,32)            121.0935         estimate D2E/DX2                !
 ! A60   A(31,30,32)           118.2905         estimate D2E/DX2                !
 ! A61   A(30,31,33)           120.7671         estimate D2E/DX2                !
 ! A62   A(30,31,36)           119.6417         estimate D2E/DX2                !
 ! A63   A(33,31,36)           119.5887         estimate D2E/DX2                !
 ! A64   A(30,32,34)           120.7671         estimate D2E/DX2                !
 ! A65   A(30,32,37)           119.8921         estimate D2E/DX2                !
 ! A66   A(34,32,37)           119.3377         estimate D2E/DX2                !
 ! A67   A(31,33,35)           120.2646         estimate D2E/DX2                !
 ! A68   A(31,33,38)           119.6911         estimate D2E/DX2                !
 ! A69   A(35,33,38)           120.0441         estimate D2E/DX2                !
 ! A70   A(32,34,35)           120.2594         estimate D2E/DX2                !
 ! A71   A(32,34,39)           119.6574         estimate D2E/DX2                !
 ! A72   A(35,34,39)           120.083          estimate D2E/DX2                !
 ! A73   A(33,35,34)           119.6513         estimate D2E/DX2                !
 ! A74   A(33,35,40)           120.1802         estimate D2E/DX2                !
 ! A75   A(34,35,40)           120.1685         estimate D2E/DX2                !
 ! A76   A(15,41,42)           120.5873         estimate D2E/DX2                !
 ! A77   A(15,41,43)           121.114          estimate D2E/DX2                !
 ! A78   A(42,41,43)           118.2985         estimate D2E/DX2                !
 ! A79   A(41,42,44)           120.7595         estimate D2E/DX2                !
 ! A80   A(41,42,47)           119.6104         estimate D2E/DX2                !
 ! A81   A(44,42,47)           119.6275         estimate D2E/DX2                !
 ! A82   A(41,43,45)           120.7621         estimate D2E/DX2                !
 ! A83   A(41,43,48)           119.8854         estimate D2E/DX2                !
 ! A84   A(45,43,48)           119.3499         estimate D2E/DX2                !
 ! A85   A(42,44,46)           120.2618         estimate D2E/DX2                !
 ! A86   A(42,44,49)           119.6999         estimate D2E/DX2                !
 ! A87   A(46,44,49)           120.0381         estimate D2E/DX2                !
 ! A88   A(43,45,46)           120.255          estimate D2E/DX2                !
 ! A89   A(43,45,50)           119.6638         estimate D2E/DX2                !
 ! A90   A(46,45,50)           120.081          estimate D2E/DX2                !
 ! A91   A(44,46,45)           119.663          estimate D2E/DX2                !
 ! A92   A(44,46,51)           120.1768         estimate D2E/DX2                !
 ! A93   A(45,46,51)           120.1602         estimate D2E/DX2                !
 ! D1    D(5,1,2,3)             -0.9446         estimate D2E/DX2                !
 ! D2    D(5,1,2,21)          -178.4487         estimate D2E/DX2                !
 ! D3    D(19,1,2,3)           168.5315         estimate D2E/DX2                !
 ! D4    D(19,1,2,21)           -8.9726         estimate D2E/DX2                !
 ! D5    D(2,1,5,4)              1.6022         estimate D2E/DX2                !
 ! D6    D(2,1,5,12)          -176.6754         estimate D2E/DX2                !
 ! D7    D(19,1,5,4)          -167.7937         estimate D2E/DX2                !
 ! D8    D(19,1,5,12)           13.9287         estimate D2E/DX2                !
 ! D9    D(2,1,19,17)          166.759          estimate D2E/DX2                !
 ! D10   D(2,1,19,18)           47.7508         estimate D2E/DX2                !
 ! D11   D(2,1,19,20)          -74.7138         estimate D2E/DX2                !
 ! D12   D(5,1,19,17)          -25.4964         estimate D2E/DX2                !
 ! D13   D(5,1,19,18)         -144.5047         estimate D2E/DX2                !
 ! D14   D(5,1,19,20)           93.0308         estimate D2E/DX2                !
 ! D15   D(1,2,3,4)             -0.0695         estimate D2E/DX2                !
 ! D16   D(1,2,3,30)          -179.1701         estimate D2E/DX2                !
 ! D17   D(21,2,3,4)           177.1215         estimate D2E/DX2                !
 ! D18   D(21,2,3,30)           -1.9791         estimate D2E/DX2                !
 ! D19   D(2,3,4,5)              1.0555         estimate D2E/DX2                !
 ! D20   D(2,3,4,22)          -179.8235         estimate D2E/DX2                !
 ! D21   D(30,3,4,5)          -179.873          estimate D2E/DX2                !
 ! D22   D(30,3,4,22)           -0.7521         estimate D2E/DX2                !
 ! D23   D(2,3,30,31)          172.0844         estimate D2E/DX2                !
 ! D24   D(2,3,30,32)           -8.0225         estimate D2E/DX2                !
 ! D25   D(4,3,30,31)           -6.8156         estimate D2E/DX2                !
 ! D26   D(4,3,30,32)          173.0775         estimate D2E/DX2                !
 ! D27   D(3,4,5,1)             -1.6216         estimate D2E/DX2                !
 ! D28   D(3,4,5,12)           176.3852         estimate D2E/DX2                !
 ! D29   D(22,4,5,1)           179.2369         estimate D2E/DX2                !
 ! D30   D(22,4,5,12)           -2.7562         estimate D2E/DX2                !
 ! D31   D(1,5,12,11)         -179.2479         estimate D2E/DX2                !
 ! D32   D(1,5,12,13)            4.4999         estimate D2E/DX2                !
 ! D33   D(4,5,12,11)            2.9582         estimate D2E/DX2                !
 ! D34   D(4,5,12,13)         -173.294          estimate D2E/DX2                !
 ! D35   D(11,6,7,8)            -0.2557         estimate D2E/DX2                !
 ! D36   D(11,6,7,24)          179.2159         estimate D2E/DX2                !
 ! D37   D(23,6,7,8)          -178.7517         estimate D2E/DX2                !
 ! D38   D(23,6,7,24)            0.72           estimate D2E/DX2                !
 ! D39   D(7,6,11,10)            0.5753         estimate D2E/DX2                !
 ! D40   D(7,6,11,12)          179.9715         estimate D2E/DX2                !
 ! D41   D(23,6,11,10)         179.0841         estimate D2E/DX2                !
 ! D42   D(23,6,11,12)          -1.5198         estimate D2E/DX2                !
 ! D43   D(6,7,8,9)             -0.1972         estimate D2E/DX2                !
 ! D44   D(6,7,8,25)           179.9907         estimate D2E/DX2                !
 ! D45   D(24,7,8,9)          -179.6662         estimate D2E/DX2                !
 ! D46   D(24,7,8,25)            0.5217         estimate D2E/DX2                !
 ! D47   D(7,8,9,10)             0.3188         estimate D2E/DX2                !
 ! D48   D(7,8,9,26)          -179.0098         estimate D2E/DX2                !
 ! D49   D(25,8,9,10)         -179.869          estimate D2E/DX2                !
 ! D50   D(25,8,9,26)            0.8023         estimate D2E/DX2                !
 ! D51   D(8,9,10,11)            0.0113         estimate D2E/DX2                !
 ! D52   D(8,9,10,27)         -177.8234         estimate D2E/DX2                !
 ! D53   D(26,9,10,11)         179.3435         estimate D2E/DX2                !
 ! D54   D(26,9,10,27)           1.5088         estimate D2E/DX2                !
 ! D55   D(9,10,11,6)           -0.4532         estimate D2E/DX2                !
 ! D56   D(9,10,11,12)        -179.8418         estimate D2E/DX2                !
 ! D57   D(27,10,11,6)         177.3902         estimate D2E/DX2                !
 ! D58   D(27,10,11,12)         -1.9984         estimate D2E/DX2                !
 ! D59   D(6,11,12,5)          135.1519         estimate D2E/DX2                !
 ! D60   D(6,11,12,13)         -48.6702         estimate D2E/DX2                !
 ! D61   D(10,11,12,5)         -45.4706         estimate D2E/DX2                !
 ! D62   D(10,11,12,13)        130.7072         estimate D2E/DX2                !
 ! D63   D(5,12,13,14)         166.9617         estimate D2E/DX2                !
 ! D64   D(5,12,13,17)          -6.3662         estimate D2E/DX2                !
 ! D65   D(11,12,13,14)         -9.3583         estimate D2E/DX2                !
 ! D66   D(11,12,13,17)        177.3138         estimate D2E/DX2                !
 ! D67   D(12,13,14,15)       -173.3937         estimate D2E/DX2                !
 ! D68   D(12,13,14,28)          2.9034         estimate D2E/DX2                !
 ! D69   D(17,13,14,15)          0.6148         estimate D2E/DX2                !
 ! D70   D(17,13,14,28)        176.912          estimate D2E/DX2                !
 ! D71   D(12,13,17,16)        173.898          estimate D2E/DX2                !
 ! D72   D(12,13,17,19)         -9.9968         estimate D2E/DX2                !
 ! D73   D(14,13,17,16)         -0.8161         estimate D2E/DX2                !
 ! D74   D(14,13,17,19)        175.2891         estimate D2E/DX2                !
 ! D75   D(13,14,15,16)         -0.2081         estimate D2E/DX2                !
 ! D76   D(13,14,15,41)        179.6571         estimate D2E/DX2                !
 ! D77   D(28,14,15,16)       -176.3836         estimate D2E/DX2                !
 ! D78   D(28,14,15,41)          3.4816         estimate D2E/DX2                !
 ! D79   D(14,15,16,17)         -0.3029         estimate D2E/DX2                !
 ! D80   D(14,15,16,29)       -179.1762         estimate D2E/DX2                !
 ! D81   D(41,15,16,17)        179.8277         estimate D2E/DX2                !
 ! D82   D(41,15,16,29)          0.9544         estimate D2E/DX2                !
 ! D83   D(14,15,41,42)          6.8262         estimate D2E/DX2                !
 ! D84   D(14,15,41,43)       -173.072          estimate D2E/DX2                !
 ! D85   D(16,15,41,42)       -173.3335         estimate D2E/DX2                !
 ! D86   D(16,15,41,43)          6.7683         estimate D2E/DX2                !
 ! D87   D(15,16,17,13)          0.6924         estimate D2E/DX2                !
 ! D88   D(15,16,17,19)       -175.3913         estimate D2E/DX2                !
 ! D89   D(29,16,17,13)        179.6916         estimate D2E/DX2                !
 ! D90   D(29,16,17,19)          3.608          estimate D2E/DX2                !
 ! D91   D(13,17,19,1)          23.4566         estimate D2E/DX2                !
 ! D92   D(13,17,19,18)        142.5014         estimate D2E/DX2                !
 ! D93   D(13,17,19,20)        -94.8334         estimate D2E/DX2                !
 ! D94   D(16,17,19,1)        -161.0874         estimate D2E/DX2                !
 ! D95   D(16,17,19,18)        -42.0426         estimate D2E/DX2                !
 ! D96   D(16,17,19,20)         80.6225         estimate D2E/DX2                !
 ! D97   D(3,30,31,33)         179.9151         estimate D2E/DX2                !
 ! D98   D(3,30,31,36)          -0.6586         estimate D2E/DX2                !
 ! D99   D(32,30,31,33)          0.0191         estimate D2E/DX2                !
 ! D100  D(32,30,31,36)        179.4454         estimate D2E/DX2                !
 ! D101  D(3,30,32,34)        -179.9075         estimate D2E/DX2                !
 ! D102  D(3,30,32,37)          -0.5506         estimate D2E/DX2                !
 ! D103  D(31,30,32,34)         -0.012          estimate D2E/DX2                !
 ! D104  D(31,30,32,37)        179.3449         estimate D2E/DX2                !
 ! D105  D(30,31,33,35)         -0.0161         estimate D2E/DX2                !
 ! D106  D(30,31,33,38)        179.846          estimate D2E/DX2                !
 ! D107  D(36,31,33,35)       -179.4427         estimate D2E/DX2                !
 ! D108  D(36,31,33,38)          0.4193         estimate D2E/DX2                !
 ! D109  D(30,32,34,35)          0.0018         estimate D2E/DX2                !
 ! D110  D(30,32,34,39)        179.848          estimate D2E/DX2                !
 ! D111  D(37,32,34,35)       -179.3586         estimate D2E/DX2                !
 ! D112  D(37,32,34,39)          0.4876         estimate D2E/DX2                !
 ! D113  D(31,33,35,34)          0.0055         estimate D2E/DX2                !
 ! D114  D(31,33,35,40)       -179.9884         estimate D2E/DX2                !
 ! D115  D(38,33,35,34)       -179.8561         estimate D2E/DX2                !
 ! D116  D(38,33,35,40)          0.1501         estimate D2E/DX2                !
 ! D117  D(32,34,35,33)          0.0016         estimate D2E/DX2                !
 ! D118  D(32,34,35,40)        179.9955         estimate D2E/DX2                !
 ! D119  D(39,34,35,33)       -179.8439         estimate D2E/DX2                !
 ! D120  D(39,34,35,40)          0.1499         estimate D2E/DX2                !
 ! D121  D(15,41,42,44)       -179.8873         estimate D2E/DX2                !
 ! D122  D(15,41,42,47)          0.6998         estimate D2E/DX2                !
 ! D123  D(43,41,42,44)          0.0137         estimate D2E/DX2                !
 ! D124  D(43,41,42,47)       -179.3992         estimate D2E/DX2                !
 ! D125  D(15,41,43,45)        179.901          estimate D2E/DX2                !
 ! D126  D(15,41,43,48)          0.4847         estimate D2E/DX2                !
 ! D127  D(42,41,43,45)          0.0005         estimate D2E/DX2                !
 ! D128  D(42,41,43,48)       -179.4158         estimate D2E/DX2                !
 ! D129  D(41,42,44,46)         -0.0123         estimate D2E/DX2                !
 ! D130  D(41,42,44,49)       -179.8643         estimate D2E/DX2                !
 ! D131  D(47,42,44,46)        179.4005         estimate D2E/DX2                !
 ! D132  D(47,42,44,49)         -0.4515         estimate D2E/DX2                !
 ! D133  D(41,43,45,46)         -0.0161         estimate D2E/DX2                !
 ! D134  D(41,43,45,50)       -179.8681         estimate D2E/DX2                !
 ! D135  D(48,43,45,46)        179.4033         estimate D2E/DX2                !
 ! D136  D(48,43,45,50)         -0.4486         estimate D2E/DX2                !
 ! D137  D(42,44,46,45)         -0.0034         estimate D2E/DX2                !
 ! D138  D(42,44,46,51)       -179.9778         estimate D2E/DX2                !
 ! D139  D(49,44,46,45)        179.8481         estimate D2E/DX2                !
 ! D140  D(49,44,46,51)         -0.1263         estimate D2E/DX2                !
 ! D141  D(43,45,46,44)          0.0176         estimate D2E/DX2                !
 ! D142  D(43,45,46,51)        179.9919         estimate D2E/DX2                !
 ! D143  D(50,45,46,44)        179.8689         estimate D2E/DX2                !
 ! D144  D(50,45,46,51)         -0.1568         estimate D2E/DX2                !
 --------------------------------------------------------------------------------
 Trust Radius=3.00D-01 FncErr=5.00D-06 GrdErr=5.00D-06 EigMax=2.50D+02 EigMin=1.00D-04
 Number of steps in this run=    303 maximum allowed number of steps=    306.
 GradGradGradGradGradGradGradGradGradGradGradGradGradGradGradGradGradGrad

 Leave Link  103 at Mon Jan 31 14:40:37 2022, MaxMem= 14763950080 cpu:               0.5 elap:               0.1
 (Enter /lustre1/prg/gaussian/bin/G16_C01_Linda_AVX/g16/l202.exe)
 Symmetry turned off by external request.
 Stoichiometry    C27H19BF2N2
 Framework group  C1[X(C27H19BF2N2)]
 Deg. of freedom   147
 Full point group                 C1      NOp   1
                          Input orientation:                          
 ---------------------------------------------------------------------
 Center     Atomic      Atomic             Coordinates (Angstroms)
 Number     Number       Type             X           Y           Z
 ---------------------------------------------------------------------
      1          7           0       12.623665   -9.450596   -0.988748
      2          6           0       13.637669   -9.874871   -1.738346
      3          6           0       14.376168   -8.762702   -2.232625
      4          6           0       13.732638   -7.611554   -1.726879
      5          6           0       12.657312   -8.039898   -0.934616
      6          6           0       10.509762   -5.144387   -0.159713
      7          6           0       10.495791   -3.753987   -0.099626
      8          6           0       11.687620   -3.043892    0.053677
      9          6           0       12.894234   -3.737873    0.150576
     10          6           0       12.912919   -5.128692    0.088397
     11          6           0       11.720226   -5.855997   -0.072835
     12          6           0       11.721025   -7.324811   -0.137039
     13          6           0       10.821572   -8.074644    0.673244
     14          6           0        9.976586   -7.675934    1.718207
     15          6           0        9.414160   -8.843339    2.280691
     16          6           0        9.947154   -9.934331    1.535849
     17          7           0       10.763890   -9.481042    0.588972
     18          9           0       11.944013  -11.522445    0.059407
     19          5           0       11.459866  -10.340401   -0.490356
     20          9           0       10.580863  -10.615157   -1.538872
     21          1           0       13.771891  -10.937673   -1.924725
     22          1           0       14.012812   -6.577819   -1.896038
     23          1           0        9.577919   -5.694603   -0.300059
     24          1           0        9.547882   -3.220804   -0.181776
     25          1           0       11.675617   -1.954578    0.100490
     26          1           0       13.829087   -3.192818    0.286742
     27          1           0       13.856322   -5.664336    0.200652
     28          1           0        9.847805   -6.652964    2.056443
     29          1           0        9.763407  -11.001343    1.634748
     30          6           0       15.540785   -8.833660   -3.099530
     31          6           0       16.091008   -7.663397   -3.659495
     32          6           0       16.150150  -10.068828   -3.400611
     33          6           0       17.205089   -7.727397   -4.487043
     34          6           0       17.263943  -10.128573   -4.228293
     35          6           0       17.797695   -8.959125   -4.776082
     36          1           0       15.631857   -6.697333   -3.448613
     37          1           0       15.752457  -10.989504   -2.972869
     38          1           0       17.614895   -6.811069   -4.912932
     39          1           0       17.722348  -11.093338   -4.447137
     40          1           0       18.672159   -9.007739   -5.425605
     41          6           0        8.483480   -8.947606    3.391821
     42          6           0        7.916284   -7.790860    3.963171
     43          6           0        8.125834  -10.201918    3.927436
     44          6           0        7.027976   -7.886250    5.026999
     45          6           0        7.237192  -10.292953    4.990815
     46          6           0        6.683492   -9.136533    5.546677
     47          1           0        8.170317   -6.810533    3.559370
     48          1           0        8.556554  -11.113054    3.511443
     49          1           0        6.597672   -6.980098    5.454432
     50          1           0        6.974761  -11.272035    5.392417
     51          1           0        5.985856   -9.209812    6.381445
 ---------------------------------------------------------------------
 Rotational constants (GHZ):           0.2352065           0.0719671           0.0571013
 Leave Link  202 at Mon Jan 31 14:40:37 2022, MaxMem= 14763950080 cpu:               0.3 elap:               0.0
 (Enter /lustre1/prg/gaussian/bin/G16_C01_Linda_AVX/g16/l301.exe)
 Standard basis: CC-pVDZ (5D, 7F)
 Ernie: Thresh=  0.10000D-02 Tol=  0.10000D-05 Strict=F.
 Ernie:  64 primitive shells out of 799 were deleted.
   543 basis functions,  1189 primitive gaussians,   575 cartesian basis functions
   109 alpha electrons      109 beta electrons
       nuclear repulsion energy      2847.5736827302 Hartrees.
 IExCor= 4336 DFT=T Ex+Corr=M062X ExCW=0 ScaHFX=  0.540000
 ScaDFX=  1.000000  1.000000  1.000000  1.000000 ScalE2=  1.000000  1.000000
 IRadAn=      5 IRanWt=     -1 IRanGd=            0 ICorTp=0 IEmpDi=  4
 NAtoms=   51 NActive=   51 NUniq=   51 SFac= 1.00D+00 NAtFMM=   60 NAOKFM=F Big=F
 Integral buffers will be    131072 words long.
 Regular integral format.
 Two-electron integral symmetry is turned off.
 ------------------------------------------------------------------------------
 Polarizable Continuum Model (PCM)
 =================================
 Model                : C-PCM.
 Atomic radii         : UFF (Universal Force Field).
 Polarization charges : Total charges.
 Charge compensation  : None.
 Solution method      : On-the-fly selection.
 Cavity type          : Scaled VdW (van der Waals Surface) (Alpha=1.100).
 Cavity algorithm     : GePol (No added spheres)
                        Default sphere list used, NSphG=   51.
                        Lebedev-Laikov grids with approx.  5.0 points / Ang**2.
                        Smoothing algorithm: York/Karplus (Gamma=1.0000).
                        Polarization charges: spherical gaussians, with
                                              point-specific exponents (IZeta= 3).
                        Self-potential: point-specific (ISelfS= 7).
                        Self-field    : sphere-specific E.n sum rule (ISelfD= 2).
 1st derivatives      : Analytical E(r).r(x)/FMM algorithm (CHGder, D1EAlg=3).
                        Cavity 1st derivative terms included.
 Solvent              : n,n-DiMethylFormamide, Eps=  37.219000 Eps(inf)=   2.046330
 ------------------------------------------------------------------------------
 GePol: Number of generator spheres                  =      51
 GePol: Total number of spheres                      =      51
 GePol: Number of exposed spheres                    =      51 (100.00%)
 GePol: Number of points                             =    3807
 GePol: Average weight of points                     =       0.13
 GePol: Minimum weight of points                     =   0.22D-10
 GePol: Maximum weight of points                     =    0.20577
 GePol: Number of points with low weight             =     271
 GePol: Fraction of low-weight points (<1% of avg)   =       7.12%
 GePol: Cavity surface area                          =    490.703 Ang**2
 GePol: Cavity volume                                =    556.461 Ang**3
 Leave Link  301 at Mon Jan 31 14:40:37 2022, MaxMem= 14763950080 cpu:               2.3 elap:               0.2
@@@@@@@@@@@@@@@@@@@@@@@@@@@@@@@@@@@@@@@@@@@@@@@@@@@@@@@@@@@
@    WARNING: REMOTE HOST IDENTIFICATION HAS CHANGED!     @
@@@@@@@@@@@@@@@@@@@@@@@@@@@@@@@@@@@@@@@@@@@@@@@@@@@@@@@@@@@
IT IS POSSIBLE THAT SOMEONE IS DOING SOMETHING NASTY!
Someone could be eavesdropping on you right now (man-in-the-middle attack)!
It is also possible that a host key has just been changed.
The fingerprint for the ECDSA key sent by the remote host is
SHA256:JPbUbamAS/0ygbfKRGm8L9lxcG+GxE1c2+iRMzqSS8k.
Please contact your system administrator.
Add correct host key in /lustre2/home/toliste/.ssh/known_hosts to get rid of this message.
Offending ECDSA key in /lustre2/home/toliste/.ssh/known_hosts:23
Password authentication is disabled to avoid man-in-the-middle attacks.
Keyboard-interactive authentication is disabled to avoid man-in-the-middle attacks.
@@@@@@@@@@@@@@@@@@@@@@@@@@@@@@@@@@@@@@@@@@@@@@@@@@@@@@@@@@@
@    WARNING: REMOTE HOST IDENTIFICATION HAS CHANGED!     @
@@@@@@@@@@@@@@@@@@@@@@@@@@@@@@@@@@@@@@@@@@@@@@@@@@@@@@@@@@@
IT IS POSSIBLE THAT SOMEONE IS DOING SOMETHING NASTY!
Someone could be eavesdropping on you right now (man-in-the-middle attack)!
It is also possible that a host key has just been changed.
The fingerprint for the ECDSA key sent by the remote host is
SHA256:ffkDZmbOW+F+dVqkbWdK984ynT8PJYF20RDBlK0SI4M.
Please contact your system administrator.
Add correct host key in /lustre2/home/toliste/.ssh/known_hosts to get rid of this message.
Offending ECDSA key in /lustre2/home/toliste/.ssh/known_hosts:24
Password authentication is disabled to avoid man-in-the-middle attacks.
Keyboard-interactive authentication is disabled to avoid man-in-the-middle attacks.
@@@@@@@@@@@@@@@@@@@@@@@@@@@@@@@@@@@@@@@@@@@@@@@@@@@@@@@@@@@
@    WARNING: REMOTE HOST IDENTIFICATION HAS CHANGED!     @
@@@@@@@@@@@@@@@@@@@@@@@@@@@@@@@@@@@@@@@@@@@@@@@@@@@@@@@@@@@
IT IS POSSIBLE THAT SOMEONE IS DOING SOMETHING NASTY!
Someone could be eavesdropping on you right now (man-in-the-middle attack)!
It is also possible that a host key has just been changed.
The fingerprint for the ECDSA key sent by the remote host is
SHA256:QqLL3mzlIOtwdXfevw8AYvl7PIrAj0t073nGXHFJDxg.
Please contact your system administrator.
Add correct host key in /lustre2/home/toliste/.ssh/known_hosts to get rid of this message.
Offending ECDSA key in /lustre2/home/toliste/.ssh/known_hosts:25
Password authentication is disabled to avoid man-in-the-middle attacks.
Keyboard-interactive authentication is disabled to avoid man-in-the-middle attacks.
@@@@@@@@@@@@@@@@@@@@@@@@@@@@@@@@@@@@@@@@@@@@@@@@@@@@@@@@@@@
@    WARNING: REMOTE HOST IDENTIFICATION HAS CHANGED!     @
@@@@@@@@@@@@@@@@@@@@@@@@@@@@@@@@@@@@@@@@@@@@@@@@@@@@@@@@@@@
IT IS POSSIBLE THAT SOMEONE IS DOING SOMETHING NASTY!
Someone could be eavesdropping on you right now (man-in-the-middle attack)!
It is also possible that a host key has just been changed.
The fingerprint for the ECDSA key sent by the remote host is
SHA256:C2rntaMj2NmwQb59Z4dZy2+SDg4hN+JnG2oxYqrs57A.
Please contact your system administrator.
Add correct host key in /lustre2/home/toliste/.ssh/known_hosts to get rid of this message.
Offending ECDSA key in /lustre2/home/toliste/.ssh/known_hosts:14
Password authentication is disabled to avoid man-in-the-middle attacks.
Keyboard-interactive authentication is disabled to avoid man-in-the-middle attacks.
@@@@@@@@@@@@@@@@@@@@@@@@@@@@@@@@@@@@@@@@@@@@@@@@@@@@@@@@@@@
@    WARNING: REMOTE HOST IDENTIFICATION HAS CHANGED!     @
@@@@@@@@@@@@@@@@@@@@@@@@@@@@@@@@@@@@@@@@@@@@@@@@@@@@@@@@@@@
IT IS POSSIBLE THAT SOMEONE IS DOING SOMETHING NASTY!
Someone could be eavesdropping on you right now (man-in-the-middle attack)!
It is also possible that a host key has just been changed.
The fingerprint for the ECDSA key sent by the remote host is
SHA256:ERA/1woDiVitJ1y1bgXZU5nIwZN6qY4cOHKfWkbb4k4.
Please contact your system administrator.
Add correct host key in /lustre2/home/toliste/.ssh/known_hosts to get rid of this message.
Offending ECDSA key in /lustre2/home/toliste/.ssh/known_hosts:13
Password authentication is disabled to avoid man-in-the-middle attacks.
Keyboard-interactive authentication is disabled to avoid man-in-the-middle attacks.
@@@@@@@@@@@@@@@@@@@@@@@@@@@@@@@@@@@@@@@@@@@@@@@@@@@@@@@@@@@
@    WARNING: REMOTE HOST IDENTIFICATION HAS CHANGED!     @
@@@@@@@@@@@@@@@@@@@@@@@@@@@@@@@@@@@@@@@@@@@@@@@@@@@@@@@@@@@
IT IS POSSIBLE THAT SOMEONE IS DOING SOMETHING NASTY!
Someone could be eavesdropping on you right now (man-in-the-middle attack)!
It is also possible that a host key has just been changed.
The fingerprint for the ECDSA key sent by the remote host is
SHA256:K7M9HlfWiwdL8pmdyICCo+fFfXw5ceTSIAexfbbb808.
Please contact your system administrator.
Add correct host key in /lustre2/home/toliste/.ssh/known_hosts to get rid of this message.
Offending ECDSA key in /lustre2/home/toliste/.ssh/known_hosts:11
Password authentication is disabled to avoid man-in-the-middle attacks.
Keyboard-interactive authentication is disabled to avoid man-in-the-middle attacks.
@@@@@@@@@@@@@@@@@@@@@@@@@@@@@@@@@@@@@@@@@@@@@@@@@@@@@@@@@@@
@    WARNING: REMOTE HOST IDENTIFICATION HAS CHANGED!     @
@@@@@@@@@@@@@@@@@@@@@@@@@@@@@@@@@@@@@@@@@@@@@@@@@@@@@@@@@@@
IT IS POSSIBLE THAT SOMEONE IS DOING SOMETHING NASTY!
Someone could be eavesdropping on you right now (man-in-the-middle attack)!
It is also possible that a host key has just been changed.
The fingerprint for the ECDSA key sent by the remote host is
SHA256:jQW6DKmzhp9tr5/T62Z03RZ9aZ7l0haqczlekrxxGcQ.
Please contact your system administrator.
Add correct host key in /lustre2/home/toliste/.ssh/known_hosts to get rid of this message.
Offending ECDSA key in /lustre2/home/toliste/.ssh/known_hosts:12
Password authentication is disabled to avoid man-in-the-middle attacks.
Keyboard-interactive authentication is disabled to avoid man-in-the-middle attacks.
 (Enter /lustre1/prg/gaussian/bin/G16_C01_Linda_AVX/g16/linda-exe/l302.exel)
 NPDir=0 NMtPBC=     1 NCelOv=     1 NCel=       1 NClECP=     1 NCelD=      1
         NCelK=      1 NCelE2=     1 NClLst=     1 CellRange=     0.0.
 One-electron integrals computed using PRISM.
 NBasis=   543 RedAO= T EigKep=  2.34D-04  NBF=   543
 NBsUse=   543 1.00D-06 EigRej= -1.00D+00 NBFU=   543
 Precomputing XC quadrature grid using
 IXCGrd= 4 IRadAn=           5 IRanWt=          -1 IRanGd=           0 AccXCQ= 0.00D+00.
 Generated NRdTot=       0 NPtTot=           0 NUsed=           0 NTot=          32
 NSgBfM=   557   557   557   557   557 MxSgAt=    51 MxSgA2=    51.
 Leave Link  302 at Mon Jan 31 14:40:41 2022, MaxMem= 14763950080 cpu:              33.8 elap:               2.2
 (Enter /lustre1/prg/gaussian/bin/G16_C01_Linda_AVX/g16/l303.exe)
 DipDrv:  MaxL=1.
 Leave Link  303 at Mon Jan 31 14:40:42 2022, MaxMem= 14763950080 cpu:               3.1 elap:               0.2
 (Enter /lustre1/prg/gaussian/bin/G16_C01_Linda_AVX/g16/l308.exe)
 Leave Link  308 at Mon Jan 31 14:40:42 2022, MaxMem= 14763950080 cpu:               3.8 elap:               0.3
@@@@@@@@@@@@@@@@@@@@@@@@@@@@@@@@@@@@@@@@@@@@@@@@@@@@@@@@@@@
@    WARNING: REMOTE HOST IDENTIFICATION HAS CHANGED!     @
@@@@@@@@@@@@@@@@@@@@@@@@@@@@@@@@@@@@@@@@@@@@@@@@@@@@@@@@@@@
IT IS POSSIBLE THAT SOMEONE IS DOING SOMETHING NASTY!
Someone could be eavesdropping on you right now (man-in-the-middle attack)!
It is also possible that a host key has just been changed.
The fingerprint for the ECDSA key sent by the remote host is
SHA256:JPbUbamAS/0ygbfKRGm8L9lxcG+GxE1c2+iRMzqSS8k.
Please contact your system administrator.
Add correct host key in /lustre2/home/toliste/.ssh/known_hosts to get rid of this message.
Offending ECDSA key in /lustre2/home/toliste/.ssh/known_hosts:23
Password authentication is disabled to avoid man-in-the-middle attacks.
Keyboard-interactive authentication is disabled to avoid man-in-the-middle attacks.
@@@@@@@@@@@@@@@@@@@@@@@@@@@@@@@@@@@@@@@@@@@@@@@@@@@@@@@@@@@
@    WARNING: REMOTE HOST IDENTIFICATION HAS CHANGED!     @
@@@@@@@@@@@@@@@@@@@@@@@@@@@@@@@@@@@@@@@@@@@@@@@@@@@@@@@@@@@
IT IS POSSIBLE THAT SOMEONE IS DOING SOMETHING NASTY!
Someone could be eavesdropping on you right now (man-in-the-middle attack)!
It is also possible that a host key has just been changed.
The fingerprint for the ECDSA key sent by the remote host is
SHA256:ERA/1woDiVitJ1y1bgXZU5nIwZN6qY4cOHKfWkbb4k4.
Please contact your system administrator.
Add correct host key in /lustre2/home/toliste/.ssh/known_hosts to get rid of this message.
Offending ECDSA key in /lustre2/home/toliste/.ssh/known_hosts:13
Password authentication is disabled to avoid man-in-the-middle attacks.
Keyboard-interactive authentication is disabled to avoid man-in-the-middle attacks.
@@@@@@@@@@@@@@@@@@@@@@@@@@@@@@@@@@@@@@@@@@@@@@@@@@@@@@@@@@@
@    WARNING: REMOTE HOST IDENTIFICATION HAS CHANGED!     @
@@@@@@@@@@@@@@@@@@@@@@@@@@@@@@@@@@@@@@@@@@@@@@@@@@@@@@@@@@@
IT IS POSSIBLE THAT SOMEONE IS DOING SOMETHING NASTY!
Someone could be eavesdropping on you right now (man-in-the-middle attack)!
It is also possible that a host key has just been changed.
The fingerprint for the ECDSA key sent by the remote host is
SHA256:C2rntaMj2NmwQb59Z4dZy2+SDg4hN+JnG2oxYqrs57A.
Please contact your system administrator.
Add correct host key in /lustre2/home/toliste/.ssh/known_hosts to get rid of this message.
Offending ECDSA key in /lustre2/home/toliste/.ssh/known_hosts:14
Password authentication is disabled to avoid man-in-the-middle attacks.
Keyboard-interactive authentication is disabled to avoid man-in-the-middle attacks.
@@@@@@@@@@@@@@@@@@@@@@@@@@@@@@@@@@@@@@@@@@@@@@@@@@@@@@@@@@@
@    WARNING: REMOTE HOST IDENTIFICATION HAS CHANGED!     @
@@@@@@@@@@@@@@@@@@@@@@@@@@@@@@@@@@@@@@@@@@@@@@@@@@@@@@@@@@@
IT IS POSSIBLE THAT SOMEONE IS DOING SOMETHING NASTY!
Someone could be eavesdropping on you right now (man-in-the-middle attack)!
It is also possible that a host key has just been changed.
The fingerprint for the ECDSA key sent by the remote host is
SHA256:ffkDZmbOW+F+dVqkbWdK984ynT8PJYF20RDBlK0SI4M.
Please contact your system administrator.
Add correct host key in /lustre2/home/toliste/.ssh/known_hosts to get rid of this message.
Offending ECDSA key in /lustre2/home/toliste/.ssh/known_hosts:24
Password authentication is disabled to avoid man-in-the-middle attacks.
Keyboard-interactive authentication is disabled to avoid man-in-the-middle attacks.
@@@@@@@@@@@@@@@@@@@@@@@@@@@@@@@@@@@@@@@@@@@@@@@@@@@@@@@@@@@
@    WARNING: REMOTE HOST IDENTIFICATION HAS CHANGED!     @
@@@@@@@@@@@@@@@@@@@@@@@@@@@@@@@@@@@@@@@@@@@@@@@@@@@@@@@@@@@
IT IS POSSIBLE THAT SOMEONE IS DOING SOMETHING NASTY!
Someone could be eavesdropping on you right now (man-in-the-middle attack)!
It is also possible that a host key has just been changed.
The fingerprint for the ECDSA key sent by the remote host is
SHA256:K7M9HlfWiwdL8pmdyICCo+fFfXw5ceTSIAexfbbb808.
Please contact your system administrator.
Add correct host key in /lustre2/home/toliste/.ssh/known_hosts to get rid of this message.
Offending ECDSA key in /lustre2/home/toliste/.ssh/known_hosts:11
Password authentication is disabled to avoid man-in-the-middle attacks.
Keyboard-interactive authentication is disabled to avoid man-in-the-middle attacks.
@@@@@@@@@@@@@@@@@@@@@@@@@@@@@@@@@@@@@@@@@@@@@@@@@@@@@@@@@@@
@    WARNING: REMOTE HOST IDENTIFICATION HAS CHANGED!     @
@@@@@@@@@@@@@@@@@@@@@@@@@@@@@@@@@@@@@@@@@@@@@@@@@@@@@@@@@@@
IT IS POSSIBLE THAT SOMEONE IS DOING SOMETHING NASTY!
Someone could be eavesdropping on you right now (man-in-the-middle attack)!
It is also possible that a host key has just been changed.
The fingerprint for the ECDSA key sent by the remote host is
SHA256:QqLL3mzlIOtwdXfevw8AYvl7PIrAj0t073nGXHFJDxg.
Please contact your system administrator.
Add correct host key in /lustre2/home/toliste/.ssh/known_hosts to get rid of this message.
Offending ECDSA key in /lustre2/home/toliste/.ssh/known_hosts:25
Password authentication is disabled to avoid man-in-the-middle attacks.
Keyboard-interactive authentication is disabled to avoid man-in-the-middle attacks.
@@@@@@@@@@@@@@@@@@@@@@@@@@@@@@@@@@@@@@@@@@@@@@@@@@@@@@@@@@@
@    WARNING: REMOTE HOST IDENTIFICATION HAS CHANGED!     @
@@@@@@@@@@@@@@@@@@@@@@@@@@@@@@@@@@@@@@@@@@@@@@@@@@@@@@@@@@@
IT IS POSSIBLE THAT SOMEONE IS DOING SOMETHING NASTY!
Someone could be eavesdropping on you right now (man-in-the-middle attack)!
It is also possible that a host key has just been changed.
The fingerprint for the ECDSA key sent by the remote host is
SHA256:jQW6DKmzhp9tr5/T62Z03RZ9aZ7l0haqczlekrxxGcQ.
Please contact your system administrator.
Add correct host key in /lustre2/home/toliste/.ssh/known_hosts to get rid of this message.
Offending ECDSA key in /lustre2/home/toliste/.ssh/known_hosts:12
Password authentication is disabled to avoid man-in-the-middle attacks.
Keyboard-interactive authentication is disabled to avoid man-in-the-middle attacks.
 (Enter /lustre1/prg/gaussian/bin/G16_C01_Linda_AVX/g16/linda-exe/l401.exel)
 ExpMin= 9.54D-02 ExpMax= 1.47D+04 ExpMxC= 5.03D+02 IAcc=3 IRadAn=         5 AccDes= 0.00D+00
 Harris functional with IExCor= 1009 and IRadAn=       5 diagonalized for initial guess.
 HarFok:  IExCor= 1009 AccDes= 0.00D+00 IRadAn=         5 IDoV= 1 UseB2=F ITyADJ=14
 ICtDFT=  3500011 ScaDFX=  1.000000  1.000000  1.000000  1.000000
 FoFCou: FMM=F IPFlag=           0 FMFlag=      100000 FMFlg1=           0
         NFxFlg=           0 DoJE=T BraDBF=F KetDBF=T FulRan=T
         wScrn=  0.000000 ICntrl=       500 IOpCl=  0 I1Cent=   200000004 NGrid=           0
         NMat0=    1 NMatS0=      1 NMatT0=    0 NMatD0=    1 NMtDS0=    0 NMtDT0=    0
 Symmetry not used in FoFCou.
 Harris En= -1373.28886088229    
 JPrj=0 DoOrth=F DoCkMO=F.
 Leave Link  401 at Mon Jan 31 14:40:48 2022, MaxMem= 14763950080 cpu:              73.2 elap:               4.8
@@@@@@@@@@@@@@@@@@@@@@@@@@@@@@@@@@@@@@@@@@@@@@@@@@@@@@@@@@@
@    WARNING: REMOTE HOST IDENTIFICATION HAS CHANGED!     @
@@@@@@@@@@@@@@@@@@@@@@@@@@@@@@@@@@@@@@@@@@@@@@@@@@@@@@@@@@@
IT IS POSSIBLE THAT SOMEONE IS DOING SOMETHING NASTY!
Someone could be eavesdropping on you right now (man-in-the-middle attack)!
It is also possible that a host key has just been changed.
The fingerprint for the ECDSA key sent by the remote host is
SHA256:JPbUbamAS/0ygbfKRGm8L9lxcG+GxE1c2+iRMzqSS8k.
Please contact your system administrator.
Add correct host key in /lustre2/home/toliste/.ssh/known_hosts to get rid of this message.
Offending ECDSA key in /lustre2/home/toliste/.ssh/known_hosts:23
Password authentication is disabled to avoid man-in-the-middle attacks.
Keyboard-interactive authentication is disabled to avoid man-in-the-middle attacks.
@@@@@@@@@@@@@@@@@@@@@@@@@@@@@@@@@@@@@@@@@@@@@@@@@@@@@@@@@@@
@    WARNING: REMOTE HOST IDENTIFICATION HAS CHANGED!     @
@@@@@@@@@@@@@@@@@@@@@@@@@@@@@@@@@@@@@@@@@@@@@@@@@@@@@@@@@@@
IT IS POSSIBLE THAT SOMEONE IS DOING SOMETHING NASTY!
Someone could be eavesdropping on you right now (man-in-the-middle attack)!
It is also possible that a host key has just been changed.
The fingerprint for the ECDSA key sent by the remote host is
SHA256:ERA/1woDiVitJ1y1bgXZU5nIwZN6qY4cOHKfWkbb4k4.
Please contact your system administrator.
Add correct host key in /lustre2/home/toliste/.ssh/known_hosts to get rid of this message.
Offending ECDSA key in /lustre2/home/toliste/.ssh/known_hosts:13
Password authentication is disabled to avoid man-in-the-middle attacks.
Keyboard-interactive authentication is disabled to avoid man-in-the-middle attacks.
@@@@@@@@@@@@@@@@@@@@@@@@@@@@@@@@@@@@@@@@@@@@@@@@@@@@@@@@@@@
@    WARNING: REMOTE HOST IDENTIFICATION HAS CHANGED!     @
@@@@@@@@@@@@@@@@@@@@@@@@@@@@@@@@@@@@@@@@@@@@@@@@@@@@@@@@@@@
IT IS POSSIBLE THAT SOMEONE IS DOING SOMETHING NASTY!
Someone could be eavesdropping on you right now (man-in-the-middle attack)!
It is also possible that a host key has just been changed.
The fingerprint for the ECDSA key sent by the remote host is
SHA256:C2rntaMj2NmwQb59Z4dZy2+SDg4hN+JnG2oxYqrs57A.
Please contact your system administrator.
Add correct host key in /lustre2/home/toliste/.ssh/known_hosts to get rid of this message.
Offending ECDSA key in /lustre2/home/toliste/.ssh/known_hosts:14
Password authentication is disabled to avoid man-in-the-middle attacks.
Keyboard-interactive authentication is disabled to avoid man-in-the-middle attacks.
@@@@@@@@@@@@@@@@@@@@@@@@@@@@@@@@@@@@@@@@@@@@@@@@@@@@@@@@@@@
@    WARNING: REMOTE HOST IDENTIFICATION HAS CHANGED!     @
@@@@@@@@@@@@@@@@@@@@@@@@@@@@@@@@@@@@@@@@@@@@@@@@@@@@@@@@@@@
IT IS POSSIBLE THAT SOMEONE IS DOING SOMETHING NASTY!
Someone could be eavesdropping on you right now (man-in-the-middle attack)!
It is also possible that a host key has just been changed.
The fingerprint for the ECDSA key sent by the remote host is
SHA256:ffkDZmbOW+F+dVqkbWdK984ynT8PJYF20RDBlK0SI4M.
Please contact your system administrator.
Add correct host key in /lustre2/home/toliste/.ssh/known_hosts to get rid of this message.
Offending ECDSA key in /lustre2/home/toliste/.ssh/known_hosts:24
Password authentication is disabled to avoid man-in-the-middle attacks.
Keyboard-interactive authentication is disabled to avoid man-in-the-middle attacks.
@@@@@@@@@@@@@@@@@@@@@@@@@@@@@@@@@@@@@@@@@@@@@@@@@@@@@@@@@@@
@    WARNING: REMOTE HOST IDENTIFICATION HAS CHANGED!     @
@@@@@@@@@@@@@@@@@@@@@@@@@@@@@@@@@@@@@@@@@@@@@@@@@@@@@@@@@@@
IT IS POSSIBLE THAT SOMEONE IS DOING SOMETHING NASTY!
Someone could be eavesdropping on you right now (man-in-the-middle attack)!
It is also possible that a host key has just been changed.
The fingerprint for the ECDSA key sent by the remote host is
SHA256:QqLL3mzlIOtwdXfevw8AYvl7PIrAj0t073nGXHFJDxg.
Please contact your system administrator.
Add correct host key in /lustre2/home/toliste/.ssh/known_hosts to get rid of this message.
Offending ECDSA key in /lustre2/home/toliste/.ssh/known_hosts:25
Password authentication is disabled to avoid man-in-the-middle attacks.
Keyboard-interactive authentication is disabled to avoid man-in-the-middle attacks.
@@@@@@@@@@@@@@@@@@@@@@@@@@@@@@@@@@@@@@@@@@@@@@@@@@@@@@@@@@@
@    WARNING: REMOTE HOST IDENTIFICATION HAS CHANGED!     @
@@@@@@@@@@@@@@@@@@@@@@@@@@@@@@@@@@@@@@@@@@@@@@@@@@@@@@@@@@@
IT IS POSSIBLE THAT SOMEONE IS DOING SOMETHING NASTY!
Someone could be eavesdropping on you right now (man-in-the-middle attack)!
It is also possible that a host key has just been changed.
The fingerprint for the ECDSA key sent by the remote host is
SHA256:jQW6DKmzhp9tr5/T62Z03RZ9aZ7l0haqczlekrxxGcQ.
Please contact your system administrator.
Add correct host key in /lustre2/home/toliste/.ssh/known_hosts to get rid of this message.
Offending ECDSA key in /lustre2/home/toliste/.ssh/known_hosts:12
Password authentication is disabled to avoid man-in-the-middle attacks.
Keyboard-interactive authentication is disabled to avoid man-in-the-middle attacks.
@@@@@@@@@@@@@@@@@@@@@@@@@@@@@@@@@@@@@@@@@@@@@@@@@@@@@@@@@@@
@    WARNING: REMOTE HOST IDENTIFICATION HAS CHANGED!     @
@@@@@@@@@@@@@@@@@@@@@@@@@@@@@@@@@@@@@@@@@@@@@@@@@@@@@@@@@@@
IT IS POSSIBLE THAT SOMEONE IS DOING SOMETHING NASTY!
Someone could be eavesdropping on you right now (man-in-the-middle attack)!
It is also possible that a host key has just been changed.
The fingerprint for the ECDSA key sent by the remote host is
SHA256:K7M9HlfWiwdL8pmdyICCo+fFfXw5ceTSIAexfbbb808.
Please contact your system administrator.
Add correct host key in /lustre2/home/toliste/.ssh/known_hosts to get rid of this message.
Offending ECDSA key in /lustre2/home/toliste/.ssh/known_hosts:11
Password authentication is disabled to avoid man-in-the-middle attacks.
Keyboard-interactive authentication is disabled to avoid man-in-the-middle attacks.
 (Enter /lustre1/prg/gaussian/bin/G16_C01_Linda_AVX/g16/linda-exe/l502.exel)
 Two-electron integral symmetry not used.
 Closed shell SCF:
 Using DIIS extrapolation, IDIIS=  1040.
 NGot= 14763950080 LenX= 14763273835 LenY= 14762942635
 Requested convergence on RMS density matrix=1.00D-08 within 128 cycles.
 Requested convergence on MAX density matrix=1.00D-06.
 Requested convergence on             energy=1.00D-06.
 No special actions if energy rises.
 Fock matrices will be formed incrementally for  20 cycles.

 Cycle   1  Pass 1  IDiag  1:
 FoFJK:  IHMeth= 1 ICntrl=       0 DoSepK=F KAlg= 0 I1Cent=           0 FoldK=F
 IRaf= 680000000 NMat=       1 IRICut=       1 DoRegI=T DoRafI=F ISym2E= 0 IDoP0=0 IntGTp=1.
 FoFCou: FMM=F IPFlag=           0 FMFlag=      100000 FMFlg1=           0
         NFxFlg=           0 DoJE=F BraDBF=F KetDBF=F FulRan=T
         wScrn=  0.000000 ICntrl=         0 IOpCl=  0 I1Cent=           0 NGrid=           0
         NMat0=    1 NMatS0=      1 NMatT0=    0 NMatD0=    1 NMtDS0=    0 NMtDT0=    0
 Symmetry not used in FoFCou.
 Inv3:  Mode=1 IEnd=    43479747.
 Iteration    1 A*A^-1 deviation from unit magnitude is 1.37D-14 for   3805.
 Iteration    1 A*A^-1 deviation from orthogonality  is 3.86D-15 for   3805   1510.
 Iteration    1 A^-1*A deviation from unit magnitude is 1.37D-14 for   3805.
 Iteration    1 A^-1*A deviation from orthogonality  is 2.11D-15 for   3791   1611.
 E= -1373.64116244109    
 DIIS: error= 3.98D-02 at cycle   1 NSaved=   1.
 NSaved= 1 IEnMin= 1 EnMin= -1373.64116244109     IErMin= 1 ErrMin= 3.98D-02
 ErrMax= 3.98D-02  0.00D+00 EMaxC= 1.00D-01 BMatC= 5.16D-01 BMatP= 5.16D-01
 IDIUse=3 WtCom= 6.02D-01 WtEn= 3.98D-01
 Coeff-Com:  0.100D+01
 Coeff-En:   0.100D+01
 Coeff:      0.100D+01
 Gap=     0.147 Goal=   None    Shift=    0.000
 GapD=    0.147 DampG=1.000 DampE=0.500 DampFc=0.5000 IDamp=-1.
 Damping current iteration by 5.00D-01
 RMSDP=3.22D-03 MaxDP=1.25D-01              OVMax= 1.58D-01

 Cycle   2  Pass 1  IDiag  1:
 RMSU=  1.51D-03    CP:  9.63D-01
 E= -1373.91587214654     Delta-E=       -0.274709705453 Rises=F Damp=T
 DIIS: error= 7.90D-03 at cycle   2 NSaved=   2.
 NSaved= 2 IEnMin= 2 EnMin= -1373.91587214654     IErMin= 2 ErrMin= 7.90D-03
 ErrMax= 7.90D-03  0.00D+00 EMaxC= 1.00D-01 BMatC= 4.41D-02 BMatP= 5.16D-01
 IDIUse=3 WtCom= 9.21D-01 WtEn= 7.90D-02
 Coeff-Com: -0.148D+00 0.115D+01
 Coeff-En:   0.000D+00 0.100D+01
 Coeff:     -0.137D+00 0.114D+01
 Gap=     0.173 Goal=   None    Shift=    0.000
 RMSDP=1.10D-03 MaxDP=5.73D-02 DE=-2.75D-01 OVMax= 8.64D-02

 Cycle   3  Pass 1  IDiag  1:
 RMSU=  7.79D-04    CP:  9.36D-01  1.45D+00
 E= -1374.15608586245     Delta-E=       -0.240213715903 Rises=F Damp=F
 DIIS: error= 4.14D-03 at cycle   3 NSaved=   3.
 NSaved= 3 IEnMin= 3 EnMin= -1374.15608586245     IErMin= 3 ErrMin= 4.14D-03
 ErrMax= 4.14D-03  0.00D+00 EMaxC= 1.00D-01 BMatC= 1.58D-02 BMatP= 4.41D-02
 IDIUse=3 WtCom= 9.59D-01 WtEn= 4.14D-02
 Coeff-Com: -0.114D+00 0.456D+00 0.658D+00
 Coeff-En:   0.000D+00 0.000D+00 0.100D+01
 Coeff:     -0.109D+00 0.437D+00 0.672D+00
 Gap=     0.151 Goal=   None    Shift=    0.000
 RMSDP=3.13D-04 MaxDP=1.78D-02 DE=-2.40D-01 OVMax= 4.13D-02

 Cycle   4  Pass 1  IDiag  1:
 RMSU=  2.34D-04    CP:  9.38D-01  1.48D+00  7.40D-01
 E= -1374.16765776935     Delta-E=       -0.011571906903 Rises=F Damp=F
 DIIS: error= 2.25D-03 at cycle   4 NSaved=   4.
 NSaved= 4 IEnMin= 4 EnMin= -1374.16765776935     IErMin= 4 ErrMin= 2.25D-03
 ErrMax= 2.25D-03  0.00D+00 EMaxC= 1.00D-01 BMatC= 3.69D-03 BMatP= 1.58D-02
 IDIUse=3 WtCom= 9.77D-01 WtEn= 2.25D-02
 Coeff-Com: -0.398D-01 0.109D+00 0.361D+00 0.570D+00
 Coeff-En:   0.000D+00 0.000D+00 0.177D+00 0.823D+00
 Coeff:     -0.389D-01 0.106D+00 0.357D+00 0.575D+00
 Gap=     0.153 Goal=   None    Shift=    0.000
 RMSDP=1.18D-04 MaxDP=7.64D-03 DE=-1.16D-02 OVMax= 1.79D-02

 Cycle   5  Pass 1  IDiag  1:
 RMSU=  5.86D-05    CP:  9.37D-01  1.48D+00  8.15D-01  6.51D-01
 E= -1374.17114090110     Delta-E=       -0.003483131746 Rises=F Damp=F
 DIIS: error= 4.50D-04 at cycle   5 NSaved=   5.
 NSaved= 5 IEnMin= 5 EnMin= -1374.17114090110     IErMin= 5 ErrMin= 4.50D-04
 ErrMax= 4.50D-04  0.00D+00 EMaxC= 1.00D-01 BMatC= 1.78D-04 BMatP= 3.69D-03
 IDIUse=3 WtCom= 9.95D-01 WtEn= 4.50D-03
 Coeff-Com: -0.923D-02 0.151D-01 0.111D+00 0.259D+00 0.624D+00
 Coeff-En:   0.000D+00 0.000D+00 0.000D+00 0.000D+00 0.100D+01
 Coeff:     -0.919D-02 0.150D-01 0.111D+00 0.258D+00 0.625D+00
 Gap=     0.153 Goal=   None    Shift=    0.000
 RMSDP=2.72D-05 MaxDP=1.75D-03 DE=-3.48D-03 OVMax= 2.91D-03

 Cycle   6  Pass 1  IDiag  1:
 RMSU=  1.85D-05    CP:  9.37D-01  1.48D+00  8.20D-01  6.93D-01  7.19D-01
 E= -1374.17131307540     Delta-E=       -0.000172174303 Rises=F Damp=F
 DIIS: error= 1.29D-04 at cycle   6 NSaved=   6.
 NSaved= 6 IEnMin= 6 EnMin= -1374.17131307540     IErMin= 6 ErrMin= 1.29D-04
 ErrMax= 1.29D-04  0.00D+00 EMaxC= 1.00D-01 BMatC= 1.07D-05 BMatP= 1.78D-04
 IDIUse=3 WtCom= 9.99D-01 WtEn= 1.29D-03
 Coeff-Com: -0.156D-02 0.336D-03 0.241D-01 0.695D-01 0.258D+00 0.650D+00
 Coeff-En:   0.000D+00 0.000D+00 0.000D+00 0.000D+00 0.000D+00 0.100D+01
 Coeff:     -0.156D-02 0.336D-03 0.240D-01 0.694D-01 0.257D+00 0.650D+00
 Gap=     0.154 Goal=   None    Shift=    0.000
 RMSDP=8.05D-06 MaxDP=2.98D-04 DE=-1.72D-04 OVMax= 1.63D-03

 Cycle   7  Pass 1  IDiag  1:
 RMSU=  6.35D-06    CP:  9.37D-01  1.48D+00  8.21D-01  6.94D-01  7.89D-01
                    CP:  8.73D-01
 E= -1374.17132525829     Delta-E=       -0.000012182888 Rises=F Damp=F
 DIIS: error= 3.74D-05 at cycle   7 NSaved=   7.
 NSaved= 7 IEnMin= 7 EnMin= -1374.17132525829     IErMin= 7 ErrMin= 3.74D-05
 ErrMax= 3.74D-05  0.00D+00 EMaxC= 1.00D-01 BMatC= 1.04D-06 BMatP= 1.07D-05
 IDIUse=1 WtCom= 1.00D+00 WtEn= 0.00D+00
 Coeff-Com:  0.597D-03-0.186D-02-0.481D-02-0.615D-02 0.147D-01 0.223D+00
 Coeff-Com:  0.775D+00
 Coeff:      0.597D-03-0.186D-02-0.481D-02-0.615D-02 0.147D-01 0.223D+00
 Coeff:      0.775D+00
 Gap=     0.154 Goal=   None    Shift=    0.000
 RMSDP=3.22D-06 MaxDP=1.24D-04 DE=-1.22D-05 OVMax= 5.84D-04

 Cycle   8  Pass 1  IDiag  1:
 RMSU=  2.29D-06    CP:  9.37D-01  1.48D+00  8.22D-01  6.99D-01  8.00D-01
                    CP:  9.74D-01  1.01D+00
 E= -1374.17132667663     Delta-E=       -0.000001418342 Rises=F Damp=F
 DIIS: error= 1.79D-05 at cycle   8 NSaved=   8.
 NSaved= 8 IEnMin= 8 EnMin= -1374.17132667663     IErMin= 8 ErrMin= 1.79D-05
 ErrMax= 1.79D-05  0.00D+00 EMaxC= 1.00D-01 BMatC= 2.17D-07 BMatP= 1.04D-06
 IDIUse=1 WtCom= 1.00D+00 WtEn= 0.00D+00
 Coeff-Com:  0.599D-03-0.101D-02-0.663D-02-0.155D-01-0.398D-01-0.460D-02
 Coeff-Com:  0.366D+00 0.701D+00
 Coeff:      0.599D-03-0.101D-02-0.663D-02-0.155D-01-0.398D-01-0.460D-02
 Coeff:      0.366D+00 0.701D+00
 Gap=     0.154 Goal=   None    Shift=    0.000
 RMSDP=1.40D-06 MaxDP=6.63D-05 DE=-1.42D-06 OVMax= 3.74D-04

 Cycle   9  Pass 1  IDiag  1:
 RMSU=  7.35D-07    CP:  9.37D-01  1.48D+00  8.22D-01  6.99D-01  8.08D-01
                    CP:  1.01D+00  1.11D+00  7.87D-01
 E= -1374.17132699290     Delta-E=       -0.000000316272 Rises=F Damp=F
 DIIS: error= 3.27D-06 at cycle   9 NSaved=   9.
 NSaved= 9 IEnMin= 9 EnMin= -1374.17132699290     IErMin= 9 ErrMin= 3.27D-06
 ErrMax= 3.27D-06  0.00D+00 EMaxC= 1.00D-01 BMatC= 1.15D-08 BMatP= 2.17D-07
 IDIUse=1 WtCom= 1.00D+00 WtEn= 0.00D+00
 Coeff-Com:  0.155D-03-0.210D-03-0.171D-02-0.442D-02-0.135D-01-0.117D-01
 Coeff-Com:  0.612D-01 0.230D+00 0.740D+00
 Coeff:      0.155D-03-0.210D-03-0.171D-02-0.442D-02-0.135D-01-0.117D-01
 Coeff:      0.612D-01 0.230D+00 0.740D+00
 Gap=     0.154 Goal=   None    Shift=    0.000
 RMSDP=3.59D-07 MaxDP=2.45D-05 DE=-3.16D-07 OVMax= 5.42D-05

 Cycle  10  Pass 1  IDiag  1:
 RMSU=  2.51D-07    CP:  9.37D-01  1.48D+00  8.22D-01  6.99D-01  8.09D-01
                    CP:  1.01D+00  1.13D+00  8.62D-01  9.81D-01
 E= -1374.17132700788     Delta-E=       -0.000000014984 Rises=F Damp=F
 DIIS: error= 1.59D-06 at cycle  10 NSaved=  10.
 NSaved=10 IEnMin=10 EnMin= -1374.17132700788     IErMin=10 ErrMin= 1.59D-06
 ErrMax= 1.59D-06  0.00D+00 EMaxC= 1.00D-01 BMatC= 2.70D-09 BMatP= 1.15D-08
 IDIUse=1 WtCom= 1.00D+00 WtEn= 0.00D+00
 Coeff-Com: -0.191D-04 0.541D-04 0.270D-03 0.451D-03-0.724D-04-0.436D-02
 Coeff-Com: -0.337D-01 0.147D-02 0.350D+00 0.686D+00
 Coeff:     -0.191D-04 0.541D-04 0.270D-03 0.451D-03-0.724D-04-0.436D-02
 Coeff:     -0.337D-01 0.147D-02 0.350D+00 0.686D+00
 Gap=     0.154 Goal=   None    Shift=    0.000
 RMSDP=1.42D-07 MaxDP=7.27D-06 DE=-1.50D-08 OVMax= 3.52D-05

 Cycle  11  Pass 1  IDiag  1:
 RMSU=  9.12D-08    CP:  9.37D-01  1.48D+00  8.22D-01  6.99D-01  8.09D-01
                    CP:  1.02D+00  1.13D+00  8.77D-01  1.09D+00  8.89D-01
 E= -1374.17132701148     Delta-E=       -0.000000003594 Rises=F Damp=F
 DIIS: error= 5.21D-07 at cycle  11 NSaved=  11.
 NSaved=11 IEnMin=11 EnMin= -1374.17132701148     IErMin=11 ErrMin= 5.21D-07
 ErrMax= 5.21D-07  0.00D+00 EMaxC= 1.00D-01 BMatC= 2.71D-10 BMatP= 2.70D-09
 IDIUse=1 WtCom= 1.00D+00 WtEn= 0.00D+00
 Coeff-Com: -0.259D-04 0.467D-04 0.313D-03 0.711D-03 0.152D-02-0.346D-03
 Coeff-Com: -0.227D-01-0.256D-01 0.461D-01 0.284D+00 0.716D+00
 Coeff:     -0.259D-04 0.467D-04 0.313D-03 0.711D-03 0.152D-02-0.346D-03
 Coeff:     -0.227D-01-0.256D-01 0.461D-01 0.284D+00 0.716D+00
 Gap=     0.154 Goal=   None    Shift=    0.000
 RMSDP=4.91D-08 MaxDP=2.09D-06 DE=-3.59D-09 OVMax= 9.54D-06

 Cycle  12  Pass 1  IDiag  1:
 RMSU=  2.85D-08    CP:  9.37D-01  1.48D+00  8.22D-01  6.99D-01  8.09D-01
                    CP:  1.02D+00  1.14D+00  8.82D-01  1.12D+00  9.88D-01
                    CP:  9.22D-01
 E= -1374.17132701183     Delta-E=       -0.000000000353 Rises=F Damp=F
 DIIS: error= 1.76D-07 at cycle  12 NSaved=  12.
 NSaved=12 IEnMin=12 EnMin= -1374.17132701183     IErMin=12 ErrMin= 1.76D-07
 ErrMax= 1.76D-07  0.00D+00 EMaxC= 1.00D-01 BMatC= 2.09D-11 BMatP= 2.71D-10
 IDIUse=1 WtCom= 1.00D+00 WtEn= 0.00D+00
 Coeff-Com: -0.647D-05 0.997D-05 0.802D-04 0.194D-03 0.487D-03 0.349D-03
 Coeff-Com: -0.481D-02-0.650D-02-0.157D-01 0.477D-01 0.256D+00 0.722D+00
 Coeff:     -0.647D-05 0.997D-05 0.802D-04 0.194D-03 0.487D-03 0.349D-03
 Coeff:     -0.481D-02-0.650D-02-0.157D-01 0.477D-01 0.256D+00 0.722D+00
 Gap=     0.154 Goal=   None    Shift=    0.000
 RMSDP=1.20D-08 MaxDP=6.93D-07 DE=-3.53D-10 OVMax= 3.18D-06

 Cycle  13  Pass 1  IDiag  1:
 RMSU=  8.39D-09    CP:  9.37D-01  1.48D+00  8.22D-01  6.99D-01  8.09D-01
                    CP:  1.02D+00  1.14D+00  8.83D-01  1.12D+00  1.00D+00
                    CP:  9.92D-01  9.59D-01
 E= -1374.17132701187     Delta-E=       -0.000000000037 Rises=F Damp=F
 DIIS: error= 4.82D-08 at cycle  13 NSaved=  13.
 NSaved=13 IEnMin=13 EnMin= -1374.17132701187     IErMin=13 ErrMin= 4.82D-08
 ErrMax= 4.82D-08  0.00D+00 EMaxC= 1.00D-01 BMatC= 2.50D-12 BMatP= 2.09D-11
 IDIUse=1 WtCom= 1.00D+00 WtEn= 0.00D+00
 Coeff-Com:  0.105D-05-0.233D-05-0.108D-04-0.226D-04-0.232D-04 0.160D-03
 Coeff-Com:  0.806D-03 0.142D-02-0.120D-01-0.160D-01-0.173D-01 0.193D+00
 Coeff-Com:  0.850D+00
 Coeff:      0.105D-05-0.233D-05-0.108D-04-0.226D-04-0.232D-04 0.160D-03
 Coeff:      0.806D-03 0.142D-02-0.120D-01-0.160D-01-0.173D-01 0.193D+00
 Coeff:      0.850D+00
 Gap=     0.154 Goal=   None    Shift=    0.000
 RMSDP=5.96D-09 MaxDP=1.75D-07 DE=-3.73D-11 OVMax= 1.27D-06

 Error on total polarization charges =  0.01599
 SCF Done:  E(RM062X) =  -1374.17132701     A.U. after   13 cycles
            NFock= 13  Conv=0.60D-08     -V/T= 2.0063
 KE= 1.365508010008D+03 PE=-8.895298730665D+03 EE= 3.308045710914D+03
 Leave Link  502 at Mon Jan 31 14:42:49 2022, MaxMem= 14763950080 cpu:            1805.5 elap:             119.1
 (Enter /lustre1/prg/gaussian/bin/G16_C01_Linda_AVX/g16/l801.exe)
 DoSCS=F DFT=T ScalE2(SS,OS)=  1.000000  1.000000
 ExpMin= 9.54D-02 ExpMax= 1.47D+04 ExpMxC= 5.03D+02 IAcc=3 IRadAn=         5 AccDes= 0.00D+00
 HarFok:  IExCor=  205 AccDes= 0.00D+00 IRadAn=         5 IDoV=-2 UseB2=F ITyADJ=14
 ICtDFT= 12500011 ScaDFX=  1.000000  1.000000  1.000000  1.000000
 GSVD:  LWork=       -1280 too small for GESVD, short by        5600 words or        5600 for optimal perf.
 Largest valence mixing into a core orbital is  7.99D-05
 Largest core mixing into a valence orbital is  5.12D-05
 Range of M.O.s used for correlation:    33   543
 NBasis=   543 NAE=   109 NBE=   109 NFC=    32 NFV=     0
 NROrb=    511 NOA=    77 NOB=    77 NVA=   434 NVB=   434

 **** Warning!!: The largest alpha MO coefficient is  0.13899698D+02

 Leave Link  801 at Mon Jan 31 14:42:50 2022, MaxMem= 14763950080 cpu:               4.2 elap:               0.3
@@@@@@@@@@@@@@@@@@@@@@@@@@@@@@@@@@@@@@@@@@@@@@@@@@@@@@@@@@@
@    WARNING: REMOTE HOST IDENTIFICATION HAS CHANGED!     @
@@@@@@@@@@@@@@@@@@@@@@@@@@@@@@@@@@@@@@@@@@@@@@@@@@@@@@@@@@@
IT IS POSSIBLE THAT SOMEONE IS DOING SOMETHING NASTY!
Someone could be eavesdropping on you right now (man-in-the-middle attack)!
It is also possible that a host key has just been changed.
The fingerprint for the ECDSA key sent by the remote host is
SHA256:JPbUbamAS/0ygbfKRGm8L9lxcG+GxE1c2+iRMzqSS8k.
[...]
 Alpha virt. eigenvalues --    1.13148   1.13845   1.15849   1.16346   1.17373
 Alpha virt. eigenvalues --    1.18778   1.20127   1.22197   1.22284   1.24378
 Alpha virt. eigenvalues --    1.28256   1.30897   1.31404   1.32200   1.32759
 Alpha virt. eigenvalues --    1.33391   1.34138   1.34905   1.35407   1.35676
 Alpha virt. eigenvalues --    1.35827   1.36313   1.36457   1.37648   1.38805
 Alpha virt. eigenvalues --    1.39335   1.40182   1.40360   1.41382   1.41776
 Alpha virt. eigenvalues --    1.42341   1.43633   1.45628   1.47739   1.48610
 Alpha virt. eigenvalues --    1.49014   1.50231   1.50458   1.50887   1.51491
 Alpha virt. eigenvalues --    1.51917   1.52397   1.52545   1.52774   1.53209
 Alpha virt. eigenvalues --    1.53507   1.54563   1.54647   1.54816   1.55504
 Alpha virt. eigenvalues --    1.56186   1.57664   1.58841   1.59376   1.61290
 Alpha virt. eigenvalues --    1.61683   1.62295   1.62409   1.62805   1.63295
 Alpha virt. eigenvalues --    1.63633   1.64387   1.64480   1.64551   1.64745
 Alpha virt. eigenvalues --    1.64990   1.65577   1.66097   1.66371   1.66484
 Alpha virt. eigenvalues --    1.66849   1.67492   1.67600   1.67970   1.68593
 Alpha virt. eigenvalues --    1.68991   1.69663   1.69871   1.70255   1.70873
 Alpha virt. eigenvalues --    1.71388   1.71494   1.72458   1.73708   1.74247
 Alpha virt. eigenvalues --    1.74744   1.75333   1.75575   1.76816   1.77183
 Alpha virt. eigenvalues --    1.78021   1.78440   1.78716   1.78962   1.79418
 Alpha virt. eigenvalues --    1.79876   1.80289   1.80591   1.81020   1.81461
 Alpha virt. eigenvalues --    1.82317   1.82583   1.83370   1.84082   1.84603
 Alpha virt. eigenvalues --    1.85377   1.85784   1.86522   1.87187   1.87259
 Alpha virt. eigenvalues --    1.87691   1.87900   1.88392   1.88701   1.88995
 Alpha virt. eigenvalues --    1.89112   1.89530   1.90361   1.90496   1.90970
 Alpha virt. eigenvalues --    1.91153   1.92053   1.92724   1.94250   1.94746
 Alpha virt. eigenvalues --    1.95655   1.97396   1.97884   1.97969   1.99402
 Alpha virt. eigenvalues --    1.99807   2.00066   2.00328   2.00657   2.01849
 Alpha virt. eigenvalues --    2.02373   2.02600   2.03220   2.03605   2.03771
 Alpha virt. eigenvalues --    2.03968   2.06927   2.08155   2.10455   2.10642
 Alpha virt. eigenvalues --    2.12237   2.13537   2.15541   2.15592   2.16157
 Alpha virt. eigenvalues --    2.18029   2.18679   2.20956   2.22210   2.22536
 Alpha virt. eigenvalues --    2.23161   2.23259   2.26372   2.27816   2.29156
 Alpha virt. eigenvalues --    2.29884   2.30626   2.31697   2.31949   2.33501
 Alpha virt. eigenvalues --    2.35193   2.35725   2.37567   2.39753   2.40068
 Alpha virt. eigenvalues --    2.40261   2.41047   2.41872   2.42984   2.43539
 Alpha virt. eigenvalues --    2.45348   2.45616   2.46352   2.46641   2.46792
 Alpha virt. eigenvalues --    2.47553   2.49088   2.49231   2.49341   2.50788
 Alpha virt. eigenvalues --    2.52277   2.55637   2.56039   2.58003   2.64308
 Alpha virt. eigenvalues --    2.65576   2.65971   2.66095   2.69025   2.69744
 Alpha virt. eigenvalues --    2.71547   2.71925   2.73041   2.73147   2.74059
 Alpha virt. eigenvalues --    2.75967   2.76389   2.81999   2.83440   2.85456
 Alpha virt. eigenvalues --    2.85854   2.88854   2.89196   2.92686   2.95627
 Alpha virt. eigenvalues --    2.95888   3.00245   3.09616   3.11653   3.14650
 Alpha virt. eigenvalues --    3.17149   3.56663   3.59471   3.59742   3.68041
 Alpha virt. eigenvalues --    3.68319   3.71629   3.74616   3.75308   3.90498
 Alpha virt. eigenvalues --    4.01596   4.05608   4.13344   4.14235
          Condensed to atoms (all electrons):
 Mulliken charges:
               1
     1  N   -0.180760
     2  C    0.113527
     3  C   -0.029236
     4  C   -0.079415
     5  C    0.118419
     6  C    0.001752
     7  C    0.007530
     8  C    0.004999
     9  C    0.006265
    10  C   -0.002899
    11  C   -0.091370
    12  C    0.113812
    13  C    0.112622
    14  C   -0.071646
    15  C   -0.031340
    16  C    0.113007
    17  N   -0.176935
    18  F   -0.238748
    19  B    0.178673
    20  F   -0.232117
    21  H    0.066562
    22  H    0.034004
    23  H    0.023177
    24  H    0.030550
    25  H    0.030322
    26  H    0.030535
    27  H    0.025977
    28  H    0.033551
    29  H    0.065979
    30  C    0.011668
    31  C   -0.041426
    32  C   -0.045732
    33  C    0.010286
    34  C    0.009552
    35  C   -0.008088
    36  H    0.011091
    37  H    0.009983
    38  H    0.018451
    39  H    0.018870
    40  H    0.017123
    41  C    0.012720
    42  C   -0.041843
    43  C   -0.046144
    44  C    0.010165
    45  C    0.009603
    46  C   -0.008461
    47  H    0.011242
    48  H    0.009954
    49  H    0.018435
    50  H    0.018742
    51  H    0.017010
 Sum of Mulliken charges =  -0.00000
 Mulliken charges with hydrogens summed into heavy atoms:
               1
     1  N   -0.180760
     2  C    0.180089
     3  C   -0.029236
     4  C   -0.045411
     5  C    0.118419
     6  C    0.024929
     7  C    0.038080
     8  C    0.035321
     9  C    0.036800
    10  C    0.023077
    11  C   -0.091370
    12  C    0.113812
    13  C    0.112622
    14  C   -0.038094
    15  C   -0.031340
    16  C    0.178987
    17  N   -0.176935
    18  F   -0.238748
    19  B    0.178673
    20  F   -0.232117
    30  C    0.011668
    31  C   -0.030334
    32  C   -0.035750
    33  C    0.028738
    34  C    0.028423
    35  C    0.009034
    41  C    0.012720
    42  C   -0.030601
    43  C   -0.036190
    44  C    0.028600
    45  C    0.028345
    46  C    0.008548
 Electronic spatial extent (au):  <R**2>=         179721.6909
 Charge=             -0.0000 electrons
 Dipole moment (field-independent basis, Debye):
    X=              1.1515    Y=              7.1078    Z=              1.4678  Tot=              7.3486
 Quadrupole moment (field-independent basis, Debye-Ang):
   XX=           -137.6103   YY=           -274.1877   ZZ=           -177.9083
   XY=             71.2737   XZ=             -4.4988   YZ=            -15.5394
 Traceless Quadrupole moment (field-independent basis, Debye-Ang):
   XX=             58.9585   YY=            -77.6189   ZZ=             18.6604
   XY=             71.2737   XZ=             -4.4988   YZ=            -15.5394
 Octapole moment (field-independent basis, Debye-Ang**2):
  XXX=          -5352.7420  YYY=           5409.1625  ZZZ=             20.6093  XYY=          -3111.2241
  XXY=           2046.8335  XXZ=           -327.5911  XZZ=          -2121.7352  YZZ=           1434.9370
  YYZ=            166.5776  XYZ=             23.1959
 Hexadecapole moment (field-independent basis, Debye-Ang**3):
 XXXX=        -140286.1806 YYYY=         -86992.8875 ZZZZ=          -8715.4220 XXXY=          54250.0807
 XXXZ=          -3538.0472 YYYX=          62627.8424 YYYZ=          -1743.7866 ZZZX=           4168.4168
 ZZZY=           -198.3573 XXYY=         -48652.8801 XXZZ=         -27686.8752 YYZZ=         -13765.4210
 XXYZ=           2875.7395 YYXZ=           1302.0746 ZZXY=          17135.0236
 N-N= 2.846284384399D+03 E-N=-8.892685714075D+03  KE= 1.365464345765D+03

 **********************************************************************

            Population analysis using the CI Rho(1) Density.

 **********************************************************************

          Condensed to atoms (all electrons):
 Mulliken charges:
               1
     1  N   -0.181189
     2  C    0.112639
     3  C    0.052007
     4  C   -0.188890
     5  C    0.239827
     6  C   -0.019323
     7  C    0.006129
     8  C   -0.015251
     9  C    0.005065
    10  C   -0.024895
    11  C   -0.096704
    12  C   -0.162537
    13  C    0.233707
    14  C   -0.179387
    15  C    0.051137
    16  C    0.113635
    17  N   -0.177184
    18  F   -0.239637
    19  B    0.171607
    20  F   -0.234229
    21  H    0.066123
    22  H    0.032768
    23  H    0.023283
    24  H    0.030180
    25  H    0.030192
    26  H    0.030177
    27  H    0.025910
    28  H    0.032128
    29  H    0.065515
    30  C    0.028229
    31  C   -0.024022
    32  C   -0.023115
    33  C    0.013215
    34  C    0.010030
    35  C    0.018440
    36  H    0.011129
    37  H    0.009982
    38  H    0.018449
    39  H    0.018862
    40  H    0.017253
    41  C    0.029188
    42  C   -0.024136
    43  C   -0.023331
    44  C    0.013126
    45  C    0.010091
    46  C    0.018310
    47  H    0.011217
    48  H    0.009968
    49  H    0.018434
    50  H    0.018734
    51  H    0.017142
 Sum of Mulliken charges =  -0.00000
 Mulliken charges with hydrogens summed into heavy atoms:
               1
     1  N   -0.181189
     2  C    0.178762
     3  C    0.052007
     4  C   -0.156122
     5  C    0.239827
     6  C    0.003960
     7  C    0.036309
     8  C    0.014941
     9  C    0.035242
    10  C    0.001015
    11  C   -0.096704
    12  C   -0.162537
    13  C    0.233707
    14  C   -0.147259
    15  C    0.051137
    16  C    0.179151
    17  N   -0.177184
    18  F   -0.239637
    19  B    0.171607
    20  F   -0.234229
    30  C    0.028229
    31  C   -0.012893
    32  C   -0.013133
    33  C    0.031663
    34  C    0.028892
    35  C    0.035693
    41  C    0.029188
    42  C   -0.012918
    43  C   -0.013363
    44  C    0.031560
    45  C    0.028825
    46  C    0.035453
 Electronic spatial extent (au):  <R**2>=         179647.7074
 Charge=             -0.0000 electrons
 Dipole moment (field-independent basis, Debye):
    X=              1.4333    Y=              3.2448    Z=              1.8019  Tot=              3.9787
 Quadrupole moment (field-independent basis, Debye-Ang):
   XX=           -111.7775   YY=           -216.9659   ZZ=           -161.4526
   XY=             23.5762   XZ=            -18.4024   YZ=            -18.7331
 Traceless Quadrupole moment (field-independent basis, Debye-Ang):
   XX=             51.6212   YY=            -53.5673   ZZ=              1.9461
   XY=             23.5762   XZ=            -18.4024   YZ=            -18.7331
 Octapole moment (field-independent basis, Debye-Ang**2):
  XXX=          -4538.4104  YYY=           4754.7348  ZZZ=             33.7053  XYY=          -2420.0026
  XXY=           1281.4210  XXZ=           -707.6929  XZZ=          -1931.4093  YZZ=           1282.5670
  YYZ=            197.7176  XYZ=            148.1367
 Hexadecapole moment (field-independent basis, Debye-Ang**3):
 XXXX=        -121089.8883 YYYY=         -80206.5046 ZZZZ=          -8347.4676 XXXY=          40580.8491
 XXXZ=         -11049.6463 YYYX=          54785.1564 YYYZ=          -2051.9480 ZZZX=           3964.8468
 ZZZY=           -322.0947 XXYY=         -38668.8439 XXZZ=         -25115.5918 YYZZ=         -12358.6932
 XXYZ=           6312.0081 YYXZ=            182.4888 ZZXY=          15377.6575
 N-N= 2.846284384399D+03 E-N=-8.893445320782D+03  KE= 1.365557019841D+03

 **********************************************************************

            Population analysis using the CI Density.

 **********************************************************************

          Condensed to atoms (all electrons):
 Mulliken charges:
               1
     1  N   -0.182719
     2  C    0.112971
     3  C   -0.008053
     4  C   -0.111881
     5  C    0.152623
     6  C   -0.008926
     7  C    0.002672
     8  C   -0.010286
     9  C    0.001580
    10  C   -0.014303
    11  C   -0.086392
    12  C    0.045319
    13  C    0.145991
    14  C   -0.103359
    15  C   -0.009848
    16  C    0.113127
    17  N   -0.178771
    18  F   -0.239648
    19  B    0.172335
    20  F   -0.233734
    21  H    0.065211
    22  H    0.022898
    23  H    0.012264
    24  H    0.022698
    25  H    0.021303
    26  H    0.022687
    27  H    0.015235
    28  H    0.022376
    29  H    0.064840
    30  C    0.008116
    31  C   -0.028998
    32  C   -0.030573
    33  C    0.013164
    34  C    0.010938
    35  C    0.005759
    36  H    0.017974
    37  H    0.016865
    38  H    0.023707
    39  H    0.023963
    40  H    0.024641
    41  C    0.008945
    42  C   -0.029132
    43  C   -0.030824
    44  C    0.013105
    45  C    0.011029
    46  C    0.005573
    47  H    0.018186
    48  H    0.016986
    49  H    0.023791
    50  H    0.023926
    51  H    0.024649
 Sum of Mulliken charges =  -0.00000
 Mulliken charges with hydrogens summed into heavy atoms:
               1
     1  N   -0.182719
     2  C    0.178182
     3  C   -0.008053
     4  C   -0.088982
     5  C    0.152623
     6  C    0.003337
     7  C    0.025369
     8  C    0.011017
     9  C    0.024267
    10  C    0.000931
    11  C   -0.086392
    12  C    0.045319
    13  C    0.145991
    14  C   -0.080983
    15  C   -0.009848
    16  C    0.177967
    17  N   -0.178771
    18  F   -0.239648
    19  B    0.172335
    20  F   -0.233734
    30  C    0.008116
    31  C   -0.011024
    32  C   -0.013707
    33  C    0.036871
    34  C    0.034901
    35  C    0.030400
    41  C    0.008945
    42  C   -0.010946
    43  C   -0.013838
    44  C    0.036896
    45  C    0.034955
    46  C    0.030223
 Electronic spatial extent (au):  <R**2>=         179664.3864
 Charge=              0.0000 electrons
 Dipole moment (field-independent basis, Debye):
    X=              1.3946    Y=              4.1644    Z=              1.7332  Tot=              4.7214
 Quadrupole moment (field-independent basis, Debye-Ang):
   XX=           -115.7388   YY=           -233.4063   ZZ=           -163.4847
   XY=             34.7225   XZ=            -17.0649   YZ=            -18.2627
 Traceless Quadrupole moment (field-independent basis, Debye-Ang):
   XX=             55.1378   YY=            -62.5297   ZZ=              7.3919
   XY=             34.7225   XZ=            -17.0649   YZ=            -18.2627
 Octapole moment (field-independent basis, Debye-Ang**2):
  XXX=          -4661.8318  YYY=           4955.2680  ZZZ=             34.9914  XYY=          -2615.6246
  XXY=           1442.1406  XXZ=           -666.2662  XZZ=          -1956.0749  YZZ=           1301.5651
  YYZ=            194.4945  XYZ=            132.8550
 Hexadecapole moment (field-independent basis, Debye-Ang**3):
 XXXX=        -123817.3160 YYYY=         -82277.3003 ZZZZ=          -8306.6217 XXXY=          43118.3524
 XXXZ=         -10290.1375 YYYX=          57154.8312 YYYZ=          -2032.9389 ZZZX=           3947.1593
 ZZZY=           -336.2485 XXYY=         -41206.4466 XXZZ=         -25384.8049 YYZZ=         -12520.3279
 XXYZ=           5883.3707 YYXZ=            323.2447 ZZXY=          15609.0244
 N-N= 2.846284384399D+03 E-N=-8.893224858737D+03  KE= 1.365562871073D+03
 No NMR shielding tensors so no spin-rotation constants.
 Leave Link  601 at Mon Jan 31 18:04:54 2022, MaxMem= 14763950080 cpu:              11.4 elap:               0.9
 (Enter /lustre1/prg/gaussian/bin/G16_C01_Linda_AVX/g16/l9999.exe)
 Electronic transition elements 
                 1             2             3             4             5 
      1  -0.137409D+04 -0.137405D+04 -0.137404D+04 -0.137403D+04 -0.137402D+04
      2   0.297360D+01 -0.115121D+00  0.136965D+01 -0.200618D-01 -0.210661D+00
      3   0.390587D-01  0.170878D+01  0.336127D-01  0.165658D+01  0.465531D-01
      4  -0.271657D+01  0.148135D-02 -0.125272D+01 -0.423686D-01 -0.205884D+00
      5  -0.249707D+00  0.128804D-01 -0.185774D+00  0.315206D-02  0.380900D-01
      6  -0.331528D-02 -0.203004D+00 -0.449038D-02 -0.233280D+00 -0.710529D-02
      7   0.227028D+00 -0.162763D-02  0.169197D+00  0.631370D-02  0.315886D-01
      8  -0.302073D+01 -0.891276D-02 -0.277304D+01 -0.184100D+00 -0.389547D+00
      9  -0.500350D+01  0.611786D-02 -0.363317D+01 -0.187795D+00 -0.681158D+00
     10  -0.339203D+01 -0.432385D+01 -0.310413D+01 -0.506839D+01 -0.159989D+00
     11  -0.113166D+02  0.187817D+01 -0.830937D+01  0.683597D+00  0.166107D+01
     12   0.119997D+00  0.560221D+01  0.158427D+00  0.548144D+01  0.143545D+00
     13   0.991862D-01  0.117011D+01  0.390396D-01  0.563069D+00  0.613056D-02
     14   0.421108D+01 -0.469035D+01  0.290268D+01 -0.522758D+01 -0.334182D+00
     15   0.509390D+01 -0.130065D+01  0.376429D+01 -0.469774D+00  0.706369D+00
     16  -0.389168D+01  0.185390D-01 -0.274110D+01 -0.141980D+00 -0.461743D+00
                 6 
      1  -0.137400D+04
      2   0.831691D-01
      3   0.243177D+00
      4  -0.106071D+00
      5  -0.165393D-01
      6  -0.428679D-01
      7   0.186911D-01
      8  -0.436817D+00
      9  -0.420587D+00
     10  -0.142946D+01
     11  -0.679885D+00
     12   0.153108D+01
     13   0.504998D-01
     14  -0.843428D+00
     15   0.358591D+00
     16  -0.183104D+00
 Unable to Open any file for archive entry.
 1\1\VILNIUS-FIZIKA123\FOpt\RM062X TD-FC\CC-pVDZ\C27H19B1F2N2\TOLISTE\3
 1-Jan-2022\0\\#p m062x cc-pvdz scrf=(cpcm,solvent=n,n-DiMethylFormamid
 e) td=(nstate=6,root=1) opt=tight nosymm density=all int=ultrafine fch
 k\\BDP-PP-phenyl, optimized S1 in toluene\\0,1\N,12.6466850797,-9.4588
 346277,-0.9674441567\C,13.6535680581,-9.8768274267,-1.7309194635\C,14.
 3806582716,-8.7585956406,-2.2355368194\C,13.7386089039,-7.6132716501,-
 1.7232121359\C,12.6719175353,-8.0472200691,-0.9173287551\C,10.52350770
 74,-5.1534074688,-0.1669110022\C,10.5083172763,-3.762103207,-0.1136552
 536\C,11.6986548537,-3.0513343669,0.0495065133\C,12.9047473575,-3.7441
 951963,0.1632684568\C,12.9239529418,-5.135931208,0.1092909739\C,11.733
 0304866,-5.8629752182,-0.0614343299\C,11.7365946456,-7.3348094486,-0.1
 178206322\C,10.8407781159,-8.0818197024,0.6962698894\C,9.9775020085,-7
 .677920812,1.7287712852\C,9.4147052381,-8.8401306886,2.2929171334\C,9.
 9633228954,-9.9373350965,1.5643532823\N,10.7923213568,-9.4899990607,0.
 624325169\F,12.011125011,-11.5198906813,0.1312094223\B,11.5043149145,-
 10.3535411372,-0.4376091652\F,10.6225430161,-10.6766913078,-1.47686315
 6\H,13.7993452406,-10.9387096196,-1.915761605\H,14.0118541875,-6.57787
 22917,-1.8942903838\H,9.5921199114,-5.7032251507,-0.3123847912\H,9.561
 1387443,-3.2296818921,-0.2075321552\H,11.6859294341,-1.9617848409,0.09
 06401485\H,13.8382229248,-3.1983243175,0.3048789479\H,13.8674852214,-5
 .6696339699,0.2305671651\H,9.8330719509,-6.6519575038,2.0512462855\H,9
 .7808421093,-11.0037014956,1.6757196618\C,15.5375628941,-8.827103135,-
 3.1145588563\C,16.0920570726,-7.6519420019,-3.6602154264\C,16.13280392
 41,-10.0629000083,-3.4405374466\C,17.1978959864,-7.7121993934,-4.49971
 15287\C,17.2386627975,-10.118423662,-4.2801601523\C,17.7770575745,-8.9
 445671776,-4.8141988264\H,15.6457928841,-6.6847011347,-3.4279171685\H,
 15.7317236086,-10.9882723801,-3.0262837318\H,17.6119750521,-6.79252131
 17,-4.9139284023\H,17.6865182978,-11.0833619371,-4.5188999337\H,18.644
 9393122,-8.9900288874,-5.4726735624\C,8.4698160928,-8.9432486045,3.393
 9016408\C,7.897896567,-7.7846757345,3.9567079781\C,8.1050646002,-10.19
 70866655,3.9255109148\C,6.996621668,-7.8783119651,5.010393859\C,7.2033
 659647,-10.2859822559,4.9789741468\C,6.6445558864,-9.1281723634,5.5270
 540367\H,8.1580279845,-6.8043139343,3.5566479729\H,8.5380137507,-11.11
 00922679,3.5158317263\H,6.5625690967,-6.9712364464,5.4319049432\H,6.93
 49273157,-11.2644217345,5.3780447961\H,5.9369652709,-9.1998179024,6.35
 35104913\\Version=ES64L-G16RevC.01\HF=-1374.1718103\RMSD=4.293e-09\RMS
 F=1.185e-06\Dipole=0.548693,1.6383947,0.6819091\Quadrupole=40.9935922,
 -46.4892993,5.495707,25.8153375,-12.6873564,-13.5778729\PG=C01 [X(C27H
 19B1F2N2)]\\@
 The archive entry for this job was punched.


 KNOWLEDGE IS EXPERIMENT'S DAUGHTER.
 -- LEONARDO DA VINCI, IN "PENSIERI" CA. 1492
 Job cpu time:       0 days  0 hours  6 minutes 47.4 seconds.
 Elapsed time:       0 days  3 hours 21 minutes 40.0 seconds.
 File lengths (MBytes):  RWF=   1885 Int=      0 D2E=      0 Chk=     92 Scr=      1
 Normal termination of Gaussian 16 at Mon Jan 31 18:04:57 2022.
