 Entering Gaussian System, Link 0=/lustre1/prg/gaussian/bin/G16_C01_Linda9.2_SSE4/g16/g16
 Initial command:
 /lustre1/prg/gaussian/bin/G16_C01_Linda9.2_SSE4/g16/l1.exe "/lustre1/prg/webmo/data/webmo20/toliste/4375/scratch/Gau-31377.inp" -scrdir="/lustre1/prg/webmo/data/webmo20/toliste/4375/scratch/"
 Default is to use a total of  12 processors:
                               12 via shared-memory
                                1 via Linda
 Entering Link 1 = /lustre1/prg/gaussian/bin/G16_C01_Linda9.2_SSE4/g16/l1.exe PID=     31378.
  
 Copyright (c) 1988-2019, Gaussian, Inc.  All Rights Reserved.
  
 This is part of the Gaussian(R) 16 program.  It is based on
 the Gaussian(R) 09 system (copyright 2009, Gaussian, Inc.),
 the Gaussian(R) 03 system (copyright 2003, Gaussian, Inc.),
 the Gaussian(R) 98 system (copyright 1998, Gaussian, Inc.),
 the Gaussian(R) 94 system (copyright 1995, Gaussian, Inc.),
 the Gaussian 92(TM) system (copyright 1992, Gaussian, Inc.),
 the Gaussian 90(TM) system (copyright 1990, Gaussian, Inc.),
 the Gaussian 88(TM) system (copyright 1988, Gaussian, Inc.),
 the Gaussian 86(TM) system (copyright 1986, Carnegie Mellon
 University), and the Gaussian 82(TM) system (copyright 1983,
 Carnegie Mellon University). Gaussian is a federally registered
 trademark of Gaussian, Inc.
  
 This software contains proprietary and confidential information,
 including trade secrets, belonging to Gaussian, Inc.
  
 This software is provided under written license and may be
 used, copied, transmitted, or stored only in accord with that
 written license.
  
 The following legend is applicable only to US Government
 contracts under FAR:
  
                    RESTRICTED RIGHTS LEGEND
  
 Use, reproduction and disclosure by the US Government is
 subject to restrictions as set forth in subparagraphs (a)
 and (c) of the Commercial Computer Software - Restricted
 Rights clause in FAR 52.227-19.
  
 Gaussian, Inc.
 340 Quinnipiac St., Bldg. 40, Wallingford CT 06492
  
  
 ---------------------------------------------------------------
 Warning -- This program may not be used in any manner that
 competes with the business of Gaussian, Inc. or will provide
 assistance to any competitor of Gaussian, Inc.  The licensee
 of this program is prohibited from giving any competitor of
 Gaussian, Inc. access to this program.  By using this program,
 the user acknowledges that Gaussian, Inc. is engaged in the
 business of creating and licensing software in the field of
 computational chemistry and represents and warrants to the
 licensee that it is not a competitor of Gaussian, Inc. and that
 it will not use this program in any manner prohibited above.
 ---------------------------------------------------------------
  

 Cite this work as:
 Gaussian 16, Revision C.01,
 M. J. Frisch, G. W. Trucks, H. B. Schlegel, G. E. Scuseria, 
 M. A. Robb, J. R. Cheeseman, G. Scalmani, V. Barone, 
 G. A. Petersson, H. Nakatsuji, X. Li, M. Caricato, A. V. Marenich, 
 J. Bloino, B. G. Janesko, R. Gomperts, B. Mennucci, H. P. Hratchian, 
 J. V. Ortiz, A. F. Izmaylov, J. L. Sonnenberg, D. Williams-Young, 
 F. Ding, F. Lipparini, F. Egidi, J. Goings, B. Peng, A. Petrone, 
 T. Henderson, D. Ranasinghe, V. G. Zakrzewski, J. Gao, N. Rega, 
 G. Zheng, W. Liang, M. Hada, M. Ehara, K. Toyota, R. Fukuda, 
 J. Hasegawa, M. Ishida, T. Nakajima, Y. Honda, O. Kitao, H. Nakai, 
 T. Vreven, K. Throssell, J. A. Montgomery, Jr., J. E. Peralta, 
 F. Ogliaro, M. J. Bearpark, J. J. Heyd, E. N. Brothers, K. N. Kudin, 
 V. N. Staroverov, T. A. Keith, R. Kobayashi, J. Normand, 
 K. Raghavachari, A. P. Rendell, J. C. Burant, S. S. Iyengar, 
 J. Tomasi, M. Cossi, J. M. Millam, M. Klene, C. Adamo, R. Cammi, 
 J. W. Ochterski, R. L. Martin, K. Morokuma, O. Farkas, 
 J. B. Foresman, and D. J. Fox, Gaussian, Inc., Wallingford CT, 2019.
 
 ******************************************
 Gaussian 16:  ES64L-G16RevC.01  3-Jul-2019
                31-Jan-2022 
 ******************************************
 %LindaWorkers=fizika13,fizika14,fizika16,fizika17,fizika18,fizika19,fizika20,fiz
 ika21
 %chk=bodipy.chk
 SetLPE:  input flags=" -opt "Tsnet.Node.lindarsharg: ssh" "
 SetLPE:    new flags=" -opt "Tsnet.Node.lindarsharg: ssh" -opt 'Tsnet.Node.lindarsharg: ssh'  -nodelist 'fizika13.fizika.bullx fizika14.fizika.bullx fizika16.fizika.bullx fizika17.fizika.bullx fizika18.fizika.bullx fizika19.fizika.bullx fizika20.fizika.bullx fizika21.fizika.bullx' -env GAUSS_MDEF=11408506880 -env GAUSS_EXEDIR="/lustre1/prg/gaussian/bin/G16_C01_Linda9.2_SSE4/g16/bsd:/lustre1/prg/gaussian/bin/G16_C01_Linda9.2_SSE4/g16/private:/lustre1/prg/gaussian/bin/G16_C01_Linda9.2_SSE4/g16""
 Will use up to    8 processors via Linda.
 ----------------------------------------------------------------------
 #p m062x cc-pvdz scrf=(cpcm,solvent=Methanol) td=(nstate=6,root=1) opt
 =tight nosymm density=all int=ultrafine fchk
 ----------------------------------------------------------------------
 1/7=10,18=20,19=15,26=6,38=1/1,3;
 2/9=110,12=2,15=1,17=6,18=5,40=1/2;
 3/5=16,11=9,25=1,30=1,70=2101,71=1,72=3,74=-55,75=-5/1,2,3,8;
 4//1;
 5/5=2,38=5,53=3/2;
 8/6=1,10=1,107=1,108=6/1;
 9/8=1,15=2,30=10,41=6,42=1,70=2/14;
 10/5=4,28=1,31=1/2;
 6/7=2,8=2,9=2,10=2,22=-2/1;
 7/12=6,13=5,14=1,30=1/1,2,3,16;
 1/7=10,18=20,19=15,26=6/3(2);
 2/9=110,15=1/2;
 99//99;
 2/9=110,15=1/2;
 3/5=16,11=9,25=1,30=1,70=2105,71=1,72=3,74=-55,75=-5/1,2,3,8;
 4/5=5,16=3,69=1/1;
 5/5=2,38=5,53=3/2;
 8/6=1,10=1,107=1,108=6/1;
 9/8=1,15=2,30=10,41=6,42=1,49=4,70=2/14;
 10/5=4,28=1,31=1/2;
 7/12=6,13=5,14=1,30=1/1,2,3,16;
 1/7=10,18=20,19=15,26=6/3(-8);
 2/9=110,15=1/2;
 6/7=2,8=2,9=2,10=2,22=-2/1;
 99/9=10/99;
 Leave Link    1 at Mon Jan 31 14:46:00 2022, MaxMem=           0 cpu:               1.9 elap:               0.2
 (Enter /lustre1/prg/gaussian/bin/G16_C01_Linda9.2_SSE4/g16/l101.exe)
 --------------------------------------
 BDP-PP-phenyl, optimized R1 in toluene
 --------------------------------------
 Symbolic Z-matrix:
 Charge =  0 Multiplicity = 1
 N                     12.9455  -9.17441  -0.67918 
 C                     14.09211  -9.79984  -0.43656 
 C                     14.92112  -8.98055   0.38003 
 C                     14.18185  -7.80336   0.62711 
 C                     12.9552  -7.92114  -0.03778 
 C                     10.5502  -4.93335   0.10629 
 C                     10.55775  -3.54846   0.20397 
 C                     11.76274  -2.8445    0.25565 
 C                     12.96423  -3.55132   0.17089 
 C                     12.96584  -4.93621   0.07313 
 C                     11.75691  -5.67489   0.07416 
 C                     11.75382  -7.11821  -0.02702 
 C                     10.5506  -7.91836  -0.0066 
 C                     9.34192  -7.79806   0.68993 
 C                     8.59349  -8.97327   0.46128 
 C                     9.39914  -9.79405  -0.37694 
 N                     10.54064  -9.17133  -0.6487 
 F                     11.72933  -11.0663  -1.55738 
 B                     11.73184  -9.68129  -1.49992 
 F                     11.71659  -9.10067  -2.76128 
 H                     14.27987  -10.78149  -0.86393 
 H                     14.46594  -6.98524   1.28009 
 H                     9.59604  -5.44717   0.01644 
 H                     9.60942  -3.01042   0.22578 
 H                     11.76509  -1.75722   0.33363 
 H                     13.91406  -3.0155    0.16644 
 H                     13.91597  -5.45231  -0.04277 
 H                     9.07672  -6.97952   1.35025 
 H                     9.19826  -10.77517  -0.79954 
 C                     16.26198  -9.31157   0.84175 
 C                     17.04739  -8.35407   1.51166 
 C                     16.80494  -10.59503   0.63603 
 C                     18.32402  -8.66959   1.96096 
 C                     18.08196  -10.9071   1.08621 
 C                     18.84829  -9.94716   1.75123 
 H                     16.65425  -7.34973   1.67147 
 H                     16.21613  -11.35892   0.12743 
 H                     18.91722  -7.91351   2.47621 
 H                     18.48302  -11.90725   0.91962 
 H                     19.85033  -10.19344   2.10359 
 C                     7.26416  -9.30139   0.95701 
 C                     6.7103   -10.5813   0.75828 
 C                     6.50104  -8.34468   1.65337 
 C                     5.44429  -10.89067   1.24025 
 C                     5.2354   -8.6575    2.13449 
 C                     4.70004  -9.93148   1.93105 
 H                     7.28185  -11.34461   0.22951 
 H                     6.90278  -7.34312   1.80911 
 H                     5.0345   -11.88804   1.07833 
 H                     4.65946  -7.90206   2.6699 
 H                     3.70657  -10.17557   2.30829 
 
 ITRead=  0  0  0  0  0  0  0  0  0  0  0  0  0  0  0  0  0  0  0  0
 ITRead=  0  0  0  0  0  0  0  0  0  0  0  0  0  0  0  0  0  0  0  0
 ITRead=  0  0  0  0  0  0  0  0  0  0  0
 MicOpt= -1 -1 -1 -1 -1 -1 -1 -1 -1 -1 -1 -1 -1 -1 -1 -1 -1 -1 -1 -1
 MicOpt= -1 -1 -1 -1 -1 -1 -1 -1 -1 -1 -1 -1 -1 -1 -1 -1 -1 -1 -1 -1
 MicOpt= -1 -1 -1 -1 -1 -1 -1 -1 -1 -1 -1
 NAtoms=     51 NQM=       51 NQMF=       0 NMMI=      0 NMMIF=      0
                NMic=       0 NMicF=      0.
                    Isotopes and Nuclear Properties:
 (Nuclear quadrupole moments (NQMom) in fm**2, nuclear magnetic moments (NMagM)
  in nuclear magnetons)

  Atom         1           2           3           4           5           6           7           8           9          10
 IAtWgt=          14          12          12          12          12          12          12          12          12          12
 AtmWgt=  14.0030740  12.0000000  12.0000000  12.0000000  12.0000000  12.0000000  12.0000000  12.0000000  12.0000000  12.0000000
 NucSpn=           2           0           0           0           0           0           0           0           0           0
 AtZEff=  -0.0000000  -0.0000000  -0.0000000  -0.0000000  -0.0000000  -0.0000000  -0.0000000  -0.0000000  -0.0000000  -0.0000000
 NQMom=    2.0440000   0.0000000   0.0000000   0.0000000   0.0000000   0.0000000   0.0000000   0.0000000   0.0000000   0.0000000
 NMagM=    0.4037610   0.0000000   0.0000000   0.0000000   0.0000000   0.0000000   0.0000000   0.0000000   0.0000000   0.0000000
 AtZNuc=   7.0000000   6.0000000   6.0000000   6.0000000   6.0000000   6.0000000   6.0000000   6.0000000   6.0000000   6.0000000

  Atom        11          12          13          14          15          16          17          18          19          20
 IAtWgt=          12          12          12          12          12          12          14          19          11          19
 AtmWgt=  12.0000000  12.0000000  12.0000000  12.0000000  12.0000000  12.0000000  14.0030740  18.9984033  11.0093053  18.9984033
 NucSpn=           0           0           0           0           0           0           2           1           3           1
 AtZEff=  -0.0000000  -0.0000000  -0.0000000  -0.0000000  -0.0000000  -0.0000000  -0.0000000  -0.0000000  -0.0000000  -0.0000000
 NQMom=    0.0000000   0.0000000   0.0000000   0.0000000   0.0000000   0.0000000   2.0440000   0.0000000   4.0590000   0.0000000
 NMagM=    0.0000000   0.0000000   0.0000000   0.0000000   0.0000000   0.0000000   0.4037610   2.6288670   2.6886370   2.6288670
 AtZNuc=   6.0000000   6.0000000   6.0000000   6.0000000   6.0000000   6.0000000   7.0000000   9.0000000   5.0000000   9.0000000

  Atom        21          22          23          24          25          26          27          28          29          30
 IAtWgt=           1           1           1           1           1           1           1           1           1          12
 AtmWgt=   1.0078250   1.0078250   1.0078250   1.0078250   1.0078250   1.0078250   1.0078250   1.0078250   1.0078250  12.0000000
 NucSpn=           1           1           1           1           1           1           1           1           1           0
 AtZEff=  -0.0000000  -0.0000000  -0.0000000  -0.0000000  -0.0000000  -0.0000000  -0.0000000  -0.0000000  -0.0000000  -0.0000000
 NQMom=    0.0000000   0.0000000   0.0000000   0.0000000   0.0000000   0.0000000   0.0000000   0.0000000   0.0000000   0.0000000
 NMagM=    2.7928460   2.7928460   2.7928460   2.7928460   2.7928460   2.7928460   2.7928460   2.7928460   2.7928460   0.0000000
 AtZNuc=   1.0000000   1.0000000   1.0000000   1.0000000   1.0000000   1.0000000   1.0000000   1.0000000   1.0000000   6.0000000

  Atom        31          32          33          34          35          36          37          38          39          40
 IAtWgt=          12          12          12          12          12           1           1           1           1           1
 AtmWgt=  12.0000000  12.0000000  12.0000000  12.0000000  12.0000000   1.0078250   1.0078250   1.0078250   1.0078250   1.0078250
 NucSpn=           0           0           0           0           0           1           1           1           1           1
 AtZEff=  -0.0000000  -0.0000000  -0.0000000  -0.0000000  -0.0000000  -0.0000000  -0.0000000  -0.0000000  -0.0000000  -0.0000000
 NQMom=    0.0000000   0.0000000   0.0000000   0.0000000   0.0000000   0.0000000   0.0000000   0.0000000   0.0000000   0.0000000
 NMagM=    0.0000000   0.0000000   0.0000000   0.0000000   0.0000000   2.7928460   2.7928460   2.7928460   2.7928460   2.7928460
 AtZNuc=   6.0000000   6.0000000   6.0000000   6.0000000   6.0000000   1.0000000   1.0000000   1.0000000   1.0000000   1.0000000

  Atom        41          42          43          44          45          46          47          48          49          50
 IAtWgt=          12          12          12          12          12          12           1           1           1           1
 AtmWgt=  12.0000000  12.0000000  12.0000000  12.0000000  12.0000000  12.0000000   1.0078250   1.0078250   1.0078250   1.0078250
 NucSpn=           0           0           0           0           0           0           1           1           1           1
 AtZEff=  -0.0000000  -0.0000000  -0.0000000  -0.0000000  -0.0000000  -0.0000000  -0.0000000  -0.0000000  -0.0000000  -0.0000000
 NQMom=    0.0000000   0.0000000   0.0000000   0.0000000   0.0000000   0.0000000   0.0000000   0.0000000   0.0000000   0.0000000
 NMagM=    0.0000000   0.0000000   0.0000000   0.0000000   0.0000000   0.0000000   2.7928460   2.7928460   2.7928460   2.7928460
 AtZNuc=   6.0000000   6.0000000   6.0000000   6.0000000   6.0000000   6.0000000   1.0000000   1.0000000   1.0000000   1.0000000

  Atom        51
 IAtWgt=           1
 AtmWgt=   1.0078250
 NucSpn=           1
 AtZEff=  -0.0000000
 NQMom=    0.0000000
 NMagM=    2.7928460
 AtZNuc=   1.0000000
 Leave Link  101 at Mon Jan 31 14:46:00 2022, MaxMem= 11408506880 cpu:               7.0 elap:               0.6
 (Enter /lustre1/prg/gaussian/bin/G16_C01_Linda9.2_SSE4/g16/l103.exe)

 GradGradGradGradGradGradGradGradGradGradGradGradGradGradGradGradGradGrad
 Berny optimization.
 Initialization pass.
                           ----------------------------
                           !    Initial Parameters    !
                           ! (Angstroms and Degrees)  !
 --------------------------                            --------------------------
 ! Name  Definition              Value          Derivative Info.                !
 --------------------------------------------------------------------------------
 ! R1    R(1,2)                  1.3284         estimate D2E/DX2                !
 ! R2    R(1,5)                  1.4079         estimate D2E/DX2                !
 ! R3    R(1,19)                 1.5503         estimate D2E/DX2                !
 ! R4    R(2,3)                  1.4231         estimate D2E/DX2                !
 ! R5    R(2,21)                 1.087          estimate D2E/DX2                !
 ! R6    R(3,4)                  1.4119         estimate D2E/DX2                !
 ! R7    R(3,30)                 1.4563         estimate D2E/DX2                !
 ! R8    R(4,5)                  1.4002         estimate D2E/DX2                !
 ! R9    R(4,22)                 1.0846         estimate D2E/DX2                !
 ! R10   R(5,12)                 1.445          estimate D2E/DX2                !
 ! R11   R(6,7)                  1.3883         estimate D2E/DX2                !
 ! R12   R(6,11)                 1.4167         estimate D2E/DX2                !
 ! R13   R(6,23)                 1.0874         estimate D2E/DX2                !
 ! R14   R(7,8)                  1.3965         estimate D2E/DX2                !
 ! R15   R(7,24)                 1.0905         estimate D2E/DX2                !
 ! R16   R(8,9)                  1.3966         estimate D2E/DX2                !
 ! R17   R(8,25)                 1.0901         estimate D2E/DX2                !
 ! R18   R(9,10)                 1.3883         estimate D2E/DX2                !
 ! R19   R(9,26)                 1.0905         estimate D2E/DX2                !
 ! R20   R(10,11)                1.4167         estimate D2E/DX2                !
 ! R21   R(10,27)                1.0875         estimate D2E/DX2                !
 ! R22   R(11,12)                1.4469         estimate D2E/DX2                !
 ! R23   R(12,13)                1.4451         estimate D2E/DX2                !
 ! R24   R(13,14)                1.4002         estimate D2E/DX2                !
 ! R25   R(13,17)                1.408          estimate D2E/DX2                !
 ! R26   R(14,15)                1.4119         estimate D2E/DX2                !
 ! R27   R(14,28)                1.0846         estimate D2E/DX2                !
 ! R28   R(15,16)                1.4232         estimate D2E/DX2                !
 ! R29   R(15,41)                1.4562         estimate D2E/DX2                !
 ! R30   R(16,17)                1.3284         estimate D2E/DX2                !
 ! R31   R(16,29)                1.087          estimate D2E/DX2                !
 ! R32   R(17,19)                1.5504         estimate D2E/DX2                !
 ! R33   R(18,19)                1.3862         estimate D2E/DX2                !
 ! R34   R(19,20)                1.3887         estimate D2E/DX2                !
 ! R35   R(30,31)                1.408          estimate D2E/DX2                !
 ! R36   R(30,32)                1.4087         estimate D2E/DX2                !
 ! R37   R(31,33)                1.3897         estimate D2E/DX2                !
 ! R38   R(31,36)                1.0903         estimate D2E/DX2                !
 ! R39   R(32,34)                1.3895         estimate D2E/DX2                !
 ! R40   R(32,37)                1.0904         estimate D2E/DX2                !
 ! R41   R(33,35)                1.3968         estimate D2E/DX2                !
 ! R42   R(33,38)                1.0904         estimate D2E/DX2                !
 ! R43   R(34,35)                1.3968         estimate D2E/DX2                !
 ! R44   R(34,39)                1.0904         estimate D2E/DX2                !
 ! R45   R(35,40)                1.0904         estimate D2E/DX2                !
 ! R46   R(41,42)                1.4087         estimate D2E/DX2                !
 ! R47   R(41,43)                1.408          estimate D2E/DX2                !
 ! R48   R(42,44)                1.3895         estimate D2E/DX2                !
 ! R49   R(42,47)                1.0904         estimate D2E/DX2                !
 ! R50   R(43,45)                1.3897         estimate D2E/DX2                !
 ! R51   R(43,48)                1.0903         estimate D2E/DX2                !
 ! R52   R(44,46)                1.3968         estimate D2E/DX2                !
 ! R53   R(44,49)                1.0904         estimate D2E/DX2                !
 ! R54   R(45,46)                1.3968         estimate D2E/DX2                !
 ! R55   R(45,50)                1.0904         estimate D2E/DX2                !
 ! R56   R(46,51)                1.0904         estimate D2E/DX2                !
 ! A1    A(2,1,5)              109.2649         estimate D2E/DX2                !
 ! A2    A(2,1,19)             128.2032         estimate D2E/DX2                !
 ! A3    A(5,1,19)             122.5218         estimate D2E/DX2                !
 ! A4    A(1,2,3)              109.667          estimate D2E/DX2                !
 ! A5    A(1,2,21)             120.1629         estimate D2E/DX2                !
 ! A6    A(3,2,21)             130.1571         estimate D2E/DX2                !
 ! A7    A(2,3,4)              105.9861         estimate D2E/DX2                !
 ! A8    A(2,3,30)             125.975          estimate D2E/DX2                !
 ! A9    A(4,3,30)             128.0368         estimate D2E/DX2                !
 ! A10   A(3,4,5)              107.7865         estimate D2E/DX2                !
 ! A11   A(3,4,22)             126.664          estimate D2E/DX2                !
 ! A12   A(5,4,22)             125.3652         estimate D2E/DX2                !
 ! A13   A(1,5,4)              107.2925         estimate D2E/DX2                !
 ! A14   A(1,5,12)             119.4906         estimate D2E/DX2                !
 ! A15   A(4,5,12)             132.6913         estimate D2E/DX2                !
 ! A16   A(7,6,11)             121.2705         estimate D2E/DX2                !
 ! A17   A(7,6,23)             118.8109         estimate D2E/DX2                !
 ! A18   A(11,6,23)            119.8799         estimate D2E/DX2                !
 ! A19   A(6,7,8)              120.6726         estimate D2E/DX2                !
 ! A20   A(6,7,24)             119.2623         estimate D2E/DX2                !
 ! A21   A(8,7,24)             120.0592         estimate D2E/DX2                !
 ! A22   A(7,8,9)              119.0103         estimate D2E/DX2                !
 ! A23   A(7,8,25)             120.4845         estimate D2E/DX2                !
 ! A24   A(9,8,25)             120.4845         estimate D2E/DX2                !
 ! A25   A(8,9,10)             120.6724         estimate D2E/DX2                !
 ! A26   A(8,9,26)             120.0591         estimate D2E/DX2                !
 ! A27   A(10,9,26)            119.2626         estimate D2E/DX2                !
 ! A28   A(9,10,11)            121.2691         estimate D2E/DX2                !
 ! A29   A(9,10,27)            118.8119         estimate D2E/DX2                !
 ! A30   A(11,10,27)           119.8804         estimate D2E/DX2                !
 ! A31   A(6,11,10)            116.9967         estimate D2E/DX2                !
 ! A32   A(6,11,12)            121.4603         estimate D2E/DX2                !
 ! A33   A(10,11,12)           121.4589         estimate D2E/DX2                !
 ! A34   A(5,12,11)            123.5752         estimate D2E/DX2                !
 ! A35   A(5,12,13)            112.6229         estimate D2E/DX2                !
 ! A36   A(11,12,13)           123.5814         estimate D2E/DX2                !
 ! A37   A(12,13,14)           132.7018         estimate D2E/DX2                !
 ! A38   A(12,13,17)           119.4844         estimate D2E/DX2                !
 ! A39   A(14,13,17)           107.2906         estimate D2E/DX2                !
 ! A40   A(13,14,15)           107.7885         estimate D2E/DX2                !
 ! A41   A(13,14,28)           125.364          estimate D2E/DX2                !
 ! A42   A(15,14,28)           126.6654         estimate D2E/DX2                !
 ! A43   A(14,15,16)           105.9826         estimate D2E/DX2                !
 ! A44   A(14,15,41)           128.0477         estimate D2E/DX2                !
 ! A45   A(16,15,41)           125.9675         estimate D2E/DX2                !
 ! A46   A(15,16,17)           109.6688         estimate D2E/DX2                !
 ! A47   A(15,16,29)           130.1609         estimate D2E/DX2                !
 ! A48   A(17,16,29)           120.1579         estimate D2E/DX2                !
 ! A49   A(13,17,16)           109.2662         estimate D2E/DX2                !
 ! A50   A(13,17,19)           122.5262         estimate D2E/DX2                !
 ! A51   A(16,17,19)           128.1967         estimate D2E/DX2                !
 ! A52   A(1,19,17)            101.7287         estimate D2E/DX2                !
 ! A53   A(1,19,18)            110.4892         estimate D2E/DX2                !
 ! A54   A(1,19,20)            110.6562         estimate D2E/DX2                !
 ! A55   A(17,19,18)           110.4881         estimate D2E/DX2                !
 ! A56   A(17,19,20)           110.6555         estimate D2E/DX2                !
 ! A57   A(18,19,20)           112.3391         estimate D2E/DX2                !
 ! A58   A(3,30,31)            120.6568         estimate D2E/DX2                !
 ! A59   A(3,30,32)            121.0438         estimate D2E/DX2                !
 ! A60   A(31,30,32)           118.2989         estimate D2E/DX2                !
 ! A61   A(30,31,33)           120.7886         estimate D2E/DX2                !
 ! A62   A(30,31,36)           119.671          estimate D2E/DX2                !
 ! A63   A(33,31,36)           119.5375         estimate D2E/DX2                !
 ! A64   A(30,32,34)           120.7659         estimate D2E/DX2                !
 ! A65   A(30,32,37)           119.8865         estimate D2E/DX2                !
 ! A66   A(34,32,37)           119.3444         estimate D2E/DX2                !
 ! A67   A(31,33,35)           120.2603         estimate D2E/DX2                !
 ! A68   A(31,33,38)           119.6764         estimate D2E/DX2                !
 ! A69   A(35,33,38)           120.063          estimate D2E/DX2                !
 ! A70   A(32,34,35)           120.2727         estimate D2E/DX2                !
 ! A71   A(32,34,39)           119.6398         estimate D2E/DX2                !
 ! A72   A(35,34,39)           120.0873         estimate D2E/DX2                !
 ! A73   A(33,35,34)           119.6133         estimate D2E/DX2                !
 ! A74   A(33,35,40)           120.1994         estimate D2E/DX2                !
 ! A75   A(34,35,40)           120.1872         estimate D2E/DX2                !
 ! A76   A(15,41,42)           121.0391         estimate D2E/DX2                !
 ! A77   A(15,41,43)           120.6645         estimate D2E/DX2                !
 ! A78   A(42,41,43)           118.2959         estimate D2E/DX2                !
 ! A79   A(41,42,44)           120.7689         estimate D2E/DX2                !
 ! A80   A(41,42,47)           119.8919         estimate D2E/DX2                !
 ! A81   A(44,42,47)           119.3363         estimate D2E/DX2                !
 ! A82   A(41,43,45)           120.7891         estimate D2E/DX2                !
 ! A83   A(41,43,48)           119.6768         estimate D2E/DX2                !
 ! A84   A(45,43,48)           119.5314         estimate D2E/DX2                !
 ! A85   A(42,44,46)           120.2717         estimate D2E/DX2                !
 ! A86   A(42,44,49)           119.6406         estimate D2E/DX2                !
 ! A87   A(46,44,49)           120.0875         estimate D2E/DX2                !
 ! A88   A(43,45,46)           120.262          estimate D2E/DX2                !
 ! A89   A(43,45,50)           119.6751         estimate D2E/DX2                !
 ! A90   A(46,45,50)           120.0626         estimate D2E/DX2                !
 ! A91   A(44,46,45)           119.6122         estimate D2E/DX2                !
 ! A92   A(44,46,51)           120.1883         estimate D2E/DX2                !
 ! A93   A(45,46,51)           120.1995         estimate D2E/DX2                !
 ! D1    D(5,1,2,3)             -0.1655         estimate D2E/DX2                !
 ! D2    D(5,1,2,21)          -178.9807         estimate D2E/DX2                !
 ! D3    D(19,1,2,3)          -179.0177         estimate D2E/DX2                !
 ! D4    D(19,1,2,21)            2.167          estimate D2E/DX2                !
 ! D5    D(2,1,5,4)             -0.1967         estimate D2E/DX2                !
 ! D6    D(2,1,5,12)          -172.9086         estimate D2E/DX2                !
 ! D7    D(19,1,5,4)           178.7337         estimate D2E/DX2                !
 ! D8    D(19,1,5,12)            6.0217         estimate D2E/DX2                !
 ! D9    D(2,1,19,17)          140.3064         estimate D2E/DX2                !
 ! D10   D(2,1,19,18)           22.9711         estimate D2E/DX2                !
 ! D11   D(2,1,19,20)         -102.0939         estimate D2E/DX2                !
 ! D12   D(5,1,19,17)          -38.4086         estimate D2E/DX2                !
 ! D13   D(5,1,19,18)         -155.7439         estimate D2E/DX2                !
 ! D14   D(5,1,19,20)           79.1911         estimate D2E/DX2                !
 ! D15   D(1,2,3,4)              0.4574         estimate D2E/DX2                !
 ! D16   D(1,2,3,30)          -179.0483         estimate D2E/DX2                !
 ! D17   D(21,2,3,4)           179.1172         estimate D2E/DX2                !
 ! D18   D(21,2,3,30)           -0.3886         estimate D2E/DX2                !
 ! D19   D(2,3,4,5)             -0.5678         estimate D2E/DX2                !
 ! D20   D(2,3,4,22)           174.6843         estimate D2E/DX2                !
 ! D21   D(30,3,4,5)           178.9244         estimate D2E/DX2                !
 ! D22   D(30,3,4,22)           -5.8235         estimate D2E/DX2                !
 ! D23   D(2,3,30,31)          172.3184         estimate D2E/DX2                !
 ! D24   D(2,3,30,32)           -7.935          estimate D2E/DX2                !
 ! D25   D(4,3,30,31)           -7.0783         estimate D2E/DX2                !
 ! D26   D(4,3,30,32)          172.6683         estimate D2E/DX2                !
 ! D27   D(3,4,5,1)              0.4792         estimate D2E/DX2                !
 ! D28   D(3,4,5,12)           171.839          estimate D2E/DX2                !
 ! D29   D(22,4,5,1)          -174.8506         estimate D2E/DX2                !
 ! D30   D(22,4,5,12)           -3.4909         estimate D2E/DX2                !
 ! D31   D(1,5,12,11)         -153.2526         estimate D2E/DX2                !
 ! D32   D(1,5,12,13)           31.9771         estimate D2E/DX2                !
 ! D33   D(4,5,12,11)           36.2325         estimate D2E/DX2                !
 ! D34   D(4,5,12,13)         -138.5378         estimate D2E/DX2                !
 ! D35   D(11,6,7,8)             0.8552         estimate D2E/DX2                !
 ! D36   D(11,6,7,24)          179.9822         estimate D2E/DX2                !
 ! D37   D(23,6,7,8)          -176.8789         estimate D2E/DX2                !
 ! D38   D(23,6,7,24)            2.248          estimate D2E/DX2                !
 ! D39   D(7,6,11,10)           -3.3153         estimate D2E/DX2                !
 ! D40   D(7,6,11,12)          179.9748         estimate D2E/DX2                !
 ! D41   D(23,6,11,10)         174.395          estimate D2E/DX2                !
 ! D42   D(23,6,11,12)          -2.3149         estimate D2E/DX2                !
 ! D43   D(6,7,8,9)              1.7289         estimate D2E/DX2                !
 ! D44   D(6,7,8,25)          -179.9205         estimate D2E/DX2                !
 ! D45   D(24,7,8,9)          -177.3911         estimate D2E/DX2                !
 ! D46   D(24,7,8,25)            0.9595         estimate D2E/DX2                !
 ! D47   D(7,8,9,10)            -1.7307         estimate D2E/DX2                !
 ! D48   D(7,8,9,26)           177.3809         estimate D2E/DX2                !
 ! D49   D(25,8,9,10)          179.9187         estimate D2E/DX2                !
 ! D50   D(25,8,9,26)           -0.9697         estimate D2E/DX2                !
 ! D51   D(8,9,10,11)           -0.8516         estimate D2E/DX2                !
 ! D52   D(8,9,10,27)          176.8869         estimate D2E/DX2                !
 ! D53   D(26,9,10,11)        -179.9702         estimate D2E/DX2                !
 ! D54   D(26,9,10,27)          -2.2317         estimate D2E/DX2                !
 ! D55   D(9,10,11,6)            3.3134         estimate D2E/DX2                !
 ! D56   D(9,10,11,12)        -179.9766         estimate D2E/DX2                !
 ! D57   D(27,10,11,6)        -174.4012         estimate D2E/DX2                !
 ! D58   D(27,10,11,12)          2.3087         estimate D2E/DX2                !
 ! D59   D(6,11,12,5)         -178.777          estimate D2E/DX2                !
 ! D60   D(6,11,12,13)          -4.5732         estimate D2E/DX2                !
 ! D61   D(10,11,12,5)           4.6599         estimate D2E/DX2                !
 ! D62   D(10,11,12,13)        178.8637         estimate D2E/DX2                !
 ! D63   D(5,12,13,14)         138.5248         estimate D2E/DX2                !
 ! D64   D(5,12,13,17)         -32.0122         estimate D2E/DX2                !
 ! D65   D(11,12,13,14)        -36.2452         estimate D2E/DX2                !
 ! D66   D(11,12,13,17)        153.2179         estimate D2E/DX2                !
 ! D67   D(12,13,14,15)       -171.8702         estimate D2E/DX2                !
 ! D68   D(12,13,14,28)          3.4891         estimate D2E/DX2                !
 ! D69   D(17,13,14,15)         -0.4908         estimate D2E/DX2                !
 ! D70   D(17,13,14,28)        174.8685         estimate D2E/DX2                !
 ! D71   D(12,13,17,16)        172.9373         estimate D2E/DX2                !
 ! D72   D(12,13,17,19)         -5.9485         estimate D2E/DX2                !
 ! D73   D(14,13,17,16)          0.2072         estimate D2E/DX2                !
 ! D74   D(14,13,17,19)       -178.6786         estimate D2E/DX2                !
 ! D75   D(13,14,15,16)          0.5763         estimate D2E/DX2                !
 ! D76   D(13,14,15,41)       -178.9104         estimate D2E/DX2                !
 ! D77   D(28,14,15,16)       -174.7056         estimate D2E/DX2                !
 ! D78   D(28,14,15,41)          5.8078         estimate D2E/DX2                !
 ! D79   D(14,15,16,17)         -0.4595         estimate D2E/DX2                !
 ! D80   D(14,15,16,29)       -179.1546         estimate D2E/DX2                !
 ! D81   D(41,15,16,17)        179.041          estimate D2E/DX2                !
 ! D82   D(41,15,16,29)          0.3459         estimate D2E/DX2                !
 ! D83   D(14,15,41,42)       -173.0047         estimate D2E/DX2                !
 ! D84   D(14,15,41,43)          6.7562         estimate D2E/DX2                !
 ! D85   D(16,15,41,42)          7.6051         estimate D2E/DX2                !
 ! D86   D(16,15,41,43)       -172.634          estimate D2E/DX2                !
 ! D87   D(15,16,17,13)          0.1603         estimate D2E/DX2                !
 ! D88   D(15,16,17,19)        178.9649         estimate D2E/DX2                !
 ! D89   D(29,16,17,13)        179.007          estimate D2E/DX2                !
 ! D90   D(29,16,17,19)         -2.1885         estimate D2E/DX2                !
 ! D91   D(13,17,19,1)          38.3708         estimate D2E/DX2                !
 ! D92   D(13,17,19,18)        155.7069         estimate D2E/DX2                !
 ! D93   D(13,17,19,20)        -79.2294         estimate D2E/DX2                !
 ! D94   D(16,17,19,1)        -140.2907         estimate D2E/DX2                !
 ! D95   D(16,17,19,18)        -22.9546         estimate D2E/DX2                !
 ! D96   D(16,17,19,20)        102.1091         estimate D2E/DX2                !
 ! D97   D(3,30,31,33)         179.5871         estimate D2E/DX2                !
 ! D98   D(3,30,31,36)          -1.0368         estimate D2E/DX2                !
 ! D99   D(32,30,31,33)         -0.1663         estimate D2E/DX2                !
 ! D100  D(32,30,31,36)        179.2098         estimate D2E/DX2                !
 ! D101  D(3,30,32,34)        -179.6061         estimate D2E/DX2                !
 ! D102  D(3,30,32,37)          -0.2542         estimate D2E/DX2                !
 ! D103  D(31,30,32,34)          0.1463         estimate D2E/DX2                !
 ! D104  D(31,30,32,37)        179.4983         estimate D2E/DX2                !
 ! D105  D(30,31,33,35)          0.0824         estimate D2E/DX2                !
 ! D106  D(30,31,33,38)        179.8969         estimate D2E/DX2                !
 ! D107  D(36,31,33,35)       -179.2945         estimate D2E/DX2                !
 ! D108  D(36,31,33,38)          0.52           estimate D2E/DX2                !
 ! D109  D(30,32,34,35)         -0.0424         estimate D2E/DX2                !
 ! D110  D(30,32,34,39)        179.8229         estimate D2E/DX2                !
 ! D111  D(37,32,34,35)       -179.3978         estimate D2E/DX2                !
 ! D112  D(37,32,34,39)          0.4675         estimate D2E/DX2                !
 ! D113  D(31,33,35,34)          0.0254         estimate D2E/DX2                !
 ! D114  D(31,33,35,40)        179.9589         estimate D2E/DX2                !
 ! D115  D(38,33,35,34)       -179.7884         estimate D2E/DX2                !
 ! D116  D(38,33,35,40)          0.1451         estimate D2E/DX2                !
 ! D117  D(32,34,35,33)         -0.0453         estimate D2E/DX2                !
 ! D118  D(32,34,35,40)       -179.9788         estimate D2E/DX2                !
 ! D119  D(39,34,35,33)       -179.91           estimate D2E/DX2                !
 ! D120  D(39,34,35,40)          0.1565         estimate D2E/DX2                !
 ! D121  D(15,41,42,44)        179.6373         estimate D2E/DX2                !
 ! D122  D(15,41,42,47)          0.2615         estimate D2E/DX2                !
 ! D123  D(43,41,42,44)         -0.1292         estimate D2E/DX2                !
 ! D124  D(43,41,42,47)       -179.505          estimate D2E/DX2                !
 ! D125  D(15,41,43,45)       -179.6149         estimate D2E/DX2                !
 ! D126  D(15,41,43,48)          0.99           estimate D2E/DX2                !
 ! D127  D(42,41,43,45)          0.1525         estimate D2E/DX2                !
 ! D128  D(42,41,43,48)       -179.2427         estimate D2E/DX2                !
 ! D129  D(41,42,44,46)          0.0348         estimate D2E/DX2                !
 ! D130  D(41,42,44,49)       -179.8356         estimate D2E/DX2                !
 ! D131  D(47,42,44,46)        179.4141         estimate D2E/DX2                !
 ! D132  D(47,42,44,49)         -0.4564         estimate D2E/DX2                !
 ! D133  D(41,43,45,46)         -0.0814         estimate D2E/DX2                !
 ! D134  D(41,43,45,50)       -179.896          estimate D2E/DX2                !
 ! D135  D(48,43,45,46)        179.3146         estimate D2E/DX2                !
 ! D136  D(48,43,45,50)         -0.5            estimate D2E/DX2                !
 ! D137  D(42,44,46,45)          0.0397         estimate D2E/DX2                !
 ! D138  D(42,44,46,51)        179.9742         estimate D2E/DX2                !
 ! D139  D(49,44,46,45)        179.9095         estimate D2E/DX2                !
 ! D140  D(49,44,46,51)         -0.156          estimate D2E/DX2                !
 ! D141  D(43,45,46,44)         -0.0165         estimate D2E/DX2                !
 ! D142  D(43,45,46,51)       -179.951          estimate D2E/DX2                !
 ! D143  D(50,45,46,44)        179.7974         estimate D2E/DX2                !
 ! D144  D(50,45,46,51)         -0.1372         estimate D2E/DX2                !
 --------------------------------------------------------------------------------
 Trust Radius=3.00D-01 FncErr=5.00D-06 GrdErr=5.00D-06 EigMax=2.50D+02 EigMin=1.00D-04
 Number of steps in this run=    303 maximum allowed number of steps=    306.
 GradGradGradGradGradGradGradGradGradGradGradGradGradGradGradGradGradGrad

 Leave Link  103 at Mon Jan 31 14:46:01 2022, MaxMem= 11408506880 cpu:               0.2 elap:               0.0
 (Enter /lustre1/prg/gaussian/bin/G16_C01_Linda9.2_SSE4/g16/l202.exe)
 Symmetry turned off by external request.
 Stoichiometry    C27H19BF2N2
 Framework group  C1[X(C27H19BF2N2)]
 Deg. of freedom   147
 Full point group                 C1      NOp   1
                          Input orientation:                          
 ---------------------------------------------------------------------
 Center     Atomic      Atomic             Coordinates (Angstroms)
 Number     Number       Type             X           Y           Z
 ---------------------------------------------------------------------
      1          7           0       12.945495   -9.174412   -0.679183
      2          6           0       14.092112   -9.799842   -0.436560
      3          6           0       14.921122   -8.980550    0.380030
      4          6           0       14.181846   -7.803357    0.627113
      5          6           0       12.955204   -7.921139   -0.037781
      6          6           0       10.550196   -4.933348    0.106292
      7          6           0       10.557751   -3.548462    0.203967
      8          6           0       11.762738   -2.844497    0.255645
      9          6           0       12.964232   -3.551316    0.170888
     10          6           0       12.965839   -4.936211    0.073125
     11          6           0       11.756912   -5.674888    0.074155
     12          6           0       11.753822   -7.118209   -0.027018
     13          6           0       10.550601   -7.918360   -0.006596
     14          6           0        9.341922   -7.798056    0.689929
     15          6           0        8.593491   -8.973265    0.461283
     16          6           0        9.399142   -9.794053   -0.376936
     17          7           0       10.540639   -9.171330   -0.648696
     18          9           0       11.729325  -11.066300   -1.557376
     19          5           0       11.731838   -9.681291   -1.499920
     20          9           0       11.716587   -9.100669   -2.761279
     21          1           0       14.279872  -10.781493   -0.863932
     22          1           0       14.465943   -6.985240    1.280090
     23          1           0        9.596038   -5.447170    0.016440
     24          1           0        9.609417   -3.010424    0.225776
     25          1           0       11.765089   -1.757224    0.333630
     26          1           0       13.914059   -3.015500    0.166440
     27          1           0       13.915973   -5.452313   -0.042773
     28          1           0        9.076724   -6.979521    1.350250
     29          1           0        9.198265  -10.775168   -0.799536
     30          6           0       16.261984   -9.311568    0.841745
     31          6           0       17.047392   -8.354070    1.511655
     32          6           0       16.804937  -10.595026    0.636028
     33          6           0       18.324017   -8.669587    1.960955
     34          6           0       18.081955  -10.907098    1.086208
     35          6           0       18.848294   -9.947157    1.751233
     36          1           0       16.654251   -7.349732    1.671466
     37          1           0       16.216128  -11.358916    0.127430
     38          1           0       18.917216   -7.913511    2.476214
     39          1           0       18.483020  -11.907252    0.919624
     40          1           0       19.850327  -10.193439    2.103589
     41          6           0        7.264162   -9.301392    0.957008
     42          6           0        6.710301  -10.581301    0.758278
     43          6           0        6.501042   -8.344682    1.653369
     44          6           0        5.444286  -10.890665    1.240246
     45          6           0        5.235403   -8.657499    2.134492
     46          6           0        4.700043   -9.931480    1.931050
     47          1           0        7.281854  -11.344612    0.229513
     48          1           0        6.902777   -7.343117    1.809108
     49          1           0        5.034503  -11.888042    1.078327
     50          1           0        4.659458   -7.902060    2.669901
     51          1           0        3.706572  -10.175574    2.308294
 ---------------------------------------------------------------------
 Rotational constants (GHZ):           0.1897419           0.0762903           0.0617891
 Leave Link  202 at Mon Jan 31 14:46:01 2022, MaxMem= 11408506880 cpu:               0.1 elap:               0.0
 (Enter /lustre1/prg/gaussian/bin/G16_C01_Linda9.2_SSE4/g16/l301.exe)
 Standard basis: CC-pVDZ (5D, 7F)
 Ernie: Thresh=  0.10000D-02 Tol=  0.10000D-05 Strict=F.
 Ernie:  64 primitive shells out of 799 were deleted.
   543 basis functions,  1189 primitive gaussians,   575 cartesian basis functions
   109 alpha electrons      109 beta electrons
       nuclear repulsion energy      2854.7840603499 Hartrees.
 IExCor= 4336 DFT=T Ex+Corr=M062X ExCW=0 ScaHFX=  0.540000
 ScaDFX=  1.000000  1.000000  1.000000  1.000000 ScalE2=  1.000000  1.000000
 IRadAn=      5 IRanWt=     -1 IRanGd=            0 ICorTp=0 IEmpDi=  4
 NAtoms=   51 NActive=   51 NUniq=   51 SFac= 1.00D+00 NAtFMM=   60 NAOKFM=F Big=F
 Integral buffers will be    131072 words long.
 Regular integral format.
 Two-electron integral symmetry is turned off.
 ------------------------------------------------------------------------------
 Polarizable Continuum Model (PCM)
 =================================
 Model                : C-PCM.
 Atomic radii         : UFF (Universal Force Field).
 Polarization charges : Total charges.
 Charge compensation  : None.
 Solution method      : On-the-fly selection.
 Cavity type          : Scaled VdW (van der Waals Surface) (Alpha=1.100).
 Cavity algorithm     : GePol (No added spheres)
                        Default sphere list used, NSphG=   51.
                        Lebedev-Laikov grids with approx.  5.0 points / Ang**2.
                        Smoothing algorithm: York/Karplus (Gamma=1.0000).
                        Polarization charges: spherical gaussians, with
                                              point-specific exponents (IZeta= 3).
                        Self-potential: point-specific (ISelfS= 7).
                        Self-field    : sphere-specific E.n sum rule (ISelfD= 2).
 1st derivatives      : Analytical E(r).r(x)/FMM algorithm (CHGder, D1EAlg=3).
                        Cavity 1st derivative terms included.
 Solvent              : Methanol, Eps=  32.613000 Eps(inf)=   1.765709
 ------------------------------------------------------------------------------
 GePol: Number of generator spheres                  =      51
 GePol: Total number of spheres                      =      51
 GePol: Number of exposed spheres                    =      51 (100.00%)
 GePol: Number of points                             =    3827
 GePol: Average weight of points                     =       0.13
 GePol: Minimum weight of points                     =   0.10D-10
 GePol: Maximum weight of points                     =    0.20577
 GePol: Number of points with low weight             =     281
 GePol: Fraction of low-weight points (<1% of avg)   =       7.34%
 GePol: Cavity surface area                          =    487.858 Ang**2
 GePol: Cavity volume                                =    553.325 Ang**3
 Leave Link  301 at Mon Jan 31 14:46:01 2022, MaxMem= 11408506880 cpu:               1.4 elap:               0.1
@@@@@@@@@@@@@@@@@@@@@@@@@@@@@@@@@@@@@@@@@@@@@@@@@@@@@@@@@@@
@@@@@@@@@@@@@@@@@@@@@@@@@@@@@@@@@@@@@@@@@@@@@@@@@@@@@@@@@@@
@    WARNING: REMOTE HOST IDENTIFICATION HAS CHANGED!     @
@    WARNING: REMOTE HOST IDENTIFICATION HAS CHANGED!     @
@@@@@@@@@@@@@@@@@@@@@@@@@@@@@@@@@@@@@@@@@@@@@@@@@@@@@@@@@@@
@@@@@@@@@@@@@@@@@@@@@@@@@@@@@@@@@@@@@@@@@@@@@@@@@@@@@@@@@@@
IT IS POSSIBLE THAT SOMEONE IS DOING SOMETHING NASTY!
IT IS POSSIBLE THAT SOMEONE IS DOING SOMETHING NASTY!
Someone could be eavesdropping on you right now (man-in-the-middle attack)!
Someone could be eavesdropping on you right now (man-in-the-middle attack)!
It is also possible that a host key has just been changed.
It is also possible that a host key has just been changed.
The fingerprint for the ECDSA key sent by the remote host is
SHA256:GrKekbUI0EXjIn2+8KWdVGCxz/8JpOOEF1MyBm+WVPs.
The fingerprint for the ECDSA key sent by the remote host is
SHA256:DqgHnisVKxeA6JOnN38m9cKreYyEpo8e52yC5CvGJK8.
Please contact your system administrator.
Please contact your system administrator.
Add correct host key in /lustre2/home/toliste/.ssh/known_hosts to get rid of this message.
Add correct host key in /lustre2/home/toliste/.ssh/known_hosts to get rid of this message.
Offending ECDSA key in /lustre2/home/toliste/.ssh/known_hosts:76
Offending ECDSA key in /lustre2/home/toliste/.ssh/known_hosts:44
Password authentication is disabled to avoid man-in-the-middle attacks.
Password authentication is disabled to avoid man-in-the-middle attacks.
Keyboard-interactive authentication is disabled to avoid man-in-the-middle attacks.
Keyboard-interactive authentication is disabled to avoid man-in-the-middle attacks.
@@@@@@@@@@@@@@@@@@@@@@@@@@@@@@@@@@@@@@@@@@@@@@@@@@@@@@@@@@@
@    WARNING: REMOTE HOST IDENTIFICATION HAS CHANGED!     @
@@@@@@@@@@@@@@@@@@@@@@@@@@@@@@@@@@@@@@@@@@@@@@@@@@@@@@@@@@@
IT IS POSSIBLE THAT SOMEONE IS DOING SOMETHING NASTY!
Someone could be eavesdropping on you right now (man-in-the-middle attack)!
It is also possible that a host key has just been changed.
The fingerprint for the ECDSA key sent by the remote host is
SHA256:Ki/B3btCxo943N1v5zDKOfUYHONPxVQ2BEdbCqI5VQc.
Please contact your system administrator.
Add correct host key in /lustre2/home/toliste/.ssh/known_hosts to get rid of this message.
Offending ECDSA key in /lustre2/home/toliste/.ssh/known_hosts:75
Password authentication is disabled to avoid man-in-the-middle attacks.
Keyboard-interactive authentication is disabled to avoid man-in-the-middle attacks.
Warning: Permanently added 'fizika16.fizika.bullx' (ECDSA) to the list of known hosts.
@@@@@@@@@@@@@@@@@@@@@@@@@@@@@@@@@@@@@@@@@@@@@@@@@@@@@@@@@@@
@    WARNING: REMOTE HOST IDENTIFICATION HAS CHANGED!     @
@@@@@@@@@@@@@@@@@@@@@@@@@@@@@@@@@@@@@@@@@@@@@@@@@@@@@@@@@@@
IT IS POSSIBLE THAT SOMEONE IS DOING SOMETHING NASTY!
Someone could be eavesdropping on you right now (man-in-the-middle attack)!
It is also possible that a host key has just been changed.
The fingerprint for the ECDSA key sent by the remote host is
SHA256:KZqoUv2lFt2Xik+CAHlyqXW42VGQuri4bjs+H5gS/9Y.
Please contact your system administrator.
Add correct host key in /lustre2/home/toliste/.ssh/known_hosts to get rid of this message.
Offending ECDSA key in /lustre2/home/toliste/.ssh/known_hosts:45
Password authentication is disabled to avoid man-in-the-middle attacks.
Keyboard-interactive authentication is disabled to avoid man-in-the-middle attacks.
Warning: Permanently added 'fizika19.fizika.bullx' (ECDSA) to the list of known hosts.
@@@@@@@@@@@@@@@@@@@@@@@@@@@@@@@@@@@@@@@@@@@@@@@@@@@@@@@@@@@
@    WARNING: REMOTE HOST IDENTIFICATION HAS CHANGED!     @
@@@@@@@@@@@@@@@@@@@@@@@@@@@@@@@@@@@@@@@@@@@@@@@@@@@@@@@@@@@
IT IS POSSIBLE THAT SOMEONE IS DOING SOMETHING NASTY!
Someone could be eavesdropping on you right now (man-in-the-middle attack)!
It is also possible that a host key has just been changed.
The fingerprint for the ECDSA key sent by the remote host is
SHA256:DP5fYOj91xT5BZ0MiXrYOGjsngnEr0BFRwW/ADUFvIo.
Please contact your system administrator.
Add correct host key in /lustre2/home/toliste/.ssh/known_hosts to get rid of this message.
Offending ECDSA key in /lustre2/home/toliste/.ssh/known_hosts:187
Password authentication is disabled to avoid man-in-the-middle attacks.
Keyboard-interactive authentication is disabled to avoid man-in-the-middle attacks.
 (Enter /lustre1/prg/gaussian/bin/G16_C01_Linda9.2_SSE4/g16/linda-exe/l302.exel)
 NPDir=0 NMtPBC=     1 NCelOv=     1 NCel=       1 NClECP=     1 NCelD=      1
         NCelK=      1 NCelE2=     1 NClLst=     1 CellRange=     0.0.
 One-electron integrals computed using PRISM.
 NBasis=   543 RedAO= T EigKep=  2.66D-04  NBF=   543
 NBsUse=   543 1.00D-06 EigRej= -1.00D+00 NBFU=   543
 Precomputing XC quadrature grid using
 IXCGrd= 4 IRadAn=           5 IRanWt=          -1 IRanGd=           0 AccXCQ= 0.00D+00.
 Generated NRdTot=       0 NPtTot=           0 NUsed=           0 NTot=          32
 NSgBfM=   557   557   557   557   557 MxSgAt=    51 MxSgA2=    51.
 Leave Link  302 at Mon Jan 31 14:46:06 2022, MaxMem= 11408506880 cpu:              33.4 elap:               2.9
 (Enter /lustre1/prg/gaussian/bin/G16_C01_Linda9.2_SSE4/g16/l303.exe)
 DipDrv:  MaxL=1.
 Leave Link  303 at Mon Jan 31 14:46:07 2022, MaxMem= 11408506880 cpu:               2.7 elap:               0.4
 (Enter /lustre1/prg/gaussian/bin/G16_C01_Linda9.2_SSE4/g16/l308.exe)
 Leave Link  308 at Mon Jan 31 14:46:07 2022, MaxMem= 11408506880 cpu:               3.4 elap:               0.5
@@@@@@@@@@@@@@@@@@@@@@@@@@@@@@@@@@@@@@@@@@@@@@@@@@@@@@@@@@@
@    WARNING: REMOTE HOST IDENTIFICATION HAS CHANGED!     @
@@@@@@@@@@@@@@@@@@@@@@@@@@@@@@@@@@@@@@@@@@@@@@@@@@@@@@@@@@@
IT IS POSSIBLE THAT SOMEONE IS DOING SOMETHING NASTY!
Someone could be eavesdropping on you right now (man-in-the-middle attack)!
It is also possible that a host key has just been changed.
The fingerprint for the ECDSA key sent by the remote host is
SHA256:Ki/B3btCxo943N1v5zDKOfUYHONPxVQ2BEdbCqI5VQc.
Please contact your system administrator.
Add correct host key in /lustre2/home/toliste/.ssh/known_hosts to get rid of this message.
Offending ECDSA key in /lustre2/home/toliste/.ssh/known_hosts:75
Password authentication is disabled to avoid man-in-the-middle attacks.
Keyboard-interactive authentication is disabled to avoid man-in-the-middle attacks.
@@@@@@@@@@@@@@@@@@@@@@@@@@@@@@@@@@@@@@@@@@@@@@@@@@@@@@@@@@@
@    WARNING: REMOTE HOST IDENTIFICATION HAS CHANGED!     @
@@@@@@@@@@@@@@@@@@@@@@@@@@@@@@@@@@@@@@@@@@@@@@@@@@@@@@@@@@@
IT IS POSSIBLE THAT SOMEONE IS DOING SOMETHING NASTY!
Someone could be eavesdropping on you right now (man-in-the-middle attack)!
It is also possible that a host key has just been changed.
The fingerprint for the ECDSA key sent by the remote host is
SHA256:GrKekbUI0EXjIn2+8KWdVGCxz/8JpOOEF1MyBm+WVPs.
Please contact your system administrator.
Add correct host key in /lustre2/home/toliste/.ssh/known_hosts to get rid of this message.
Offending ECDSA key in /lustre2/home/toliste/.ssh/known_hosts:76
Password authentication is disabled to avoid man-in-the-middle attacks.
Keyboard-interactive authentication is disabled to avoid man-in-the-middle attacks.
@@@@@@@@@@@@@@@@@@@@@@@@@@@@@@@@@@@@@@@@@@@@@@@@@@@@@@@@@@@
@    WARNING: REMOTE HOST IDENTIFICATION HAS CHANGED!     @
@@@@@@@@@@@@@@@@@@@@@@@@@@@@@@@@@@@@@@@@@@@@@@@@@@@@@@@@@@@
IT IS POSSIBLE THAT SOMEONE IS DOING SOMETHING NASTY!
Someone could be eavesdropping on you right now (man-in-the-middle attack)!
It is also possible that a host key has just been changed.
The fingerprint for the ECDSA key sent by the remote host is
SHA256:DqgHnisVKxeA6JOnN38m9cKreYyEpo8e52yC5CvGJK8.
Please contact your system administrator.
Add correct host key in /lustre2/home/toliste/.ssh/known_hosts to get rid of this message.
Offending ECDSA key in /lustre2/home/toliste/.ssh/known_hosts:44
Password authentication is disabled to avoid man-in-the-middle attacks.
Keyboard-interactive authentication is disabled to avoid man-in-the-middle attacks.
@@@@@@@@@@@@@@@@@@@@@@@@@@@@@@@@@@@@@@@@@@@@@@@@@@@@@@@@@@@
@    WARNING: REMOTE HOST IDENTIFICATION HAS CHANGED!     @
@@@@@@@@@@@@@@@@@@@@@@@@@@@@@@@@@@@@@@@@@@@@@@@@@@@@@@@@@@@
IT IS POSSIBLE THAT SOMEONE IS DOING SOMETHING NASTY!
Someone could be eavesdropping on you right now (man-in-the-middle attack)!
It is also possible that a host key has just been changed.
The fingerprint for the ECDSA key sent by the remote host is
SHA256:DP5fYOj91xT5BZ0MiXrYOGjsngnEr0BFRwW/ADUFvIo.
Please contact your system administrator.
Add correct host key in /lustre2/home/toliste/.ssh/known_hosts to get rid of this message.
Offending ECDSA key in /lustre2/home/toliste/.ssh/known_hosts:187
Password authentication is disabled to avoid man-in-the-middle attacks.
Keyboard-interactive authentication is disabled to avoid man-in-the-middle attacks.
@@@@@@@@@@@@@@@@@@@@@@@@@@@@@@@@@@@@@@@@@@@@@@@@@@@@@@@@@@@
@    WARNING: REMOTE HOST IDENTIFICATION HAS CHANGED!     @
@@@@@@@@@@@@@@@@@@@@@@@@@@@@@@@@@@@@@@@@@@@@@@@@@@@@@@@@@@@
IT IS POSSIBLE THAT SOMEONE IS DOING SOMETHING NASTY!
Someone could be eavesdropping on you right now (man-in-the-middle attack)!
It is also possible that a host key has just been changed.
The fingerprint for the ECDSA key sent by the remote host is
SHA256:KZqoUv2lFt2Xik+CAHlyqXW42VGQuri4bjs+H5gS/9Y.
Please contact your system administrator.
Add correct host key in /lustre2/home/toliste/.ssh/known_hosts to get rid of this message.
Offending ECDSA key in /lustre2/home/toliste/.ssh/known_hosts:45
Password authentication is disabled to avoid man-in-the-middle attacks.
Keyboard-interactive authentication is disabled to avoid man-in-the-middle attacks.
 (Enter /lustre1/prg/gaussian/bin/G16_C01_Linda9.2_SSE4/g16/linda-exe/l401.exel)
 ExpMin= 9.54D-02 ExpMax= 1.47D+04 ExpMxC= 5.03D+02 IAcc=3 IRadAn=         5 AccDes= 0.00D+00
 Harris functional with IExCor= 1009 and IRadAn=       5 diagonalized for initial guess.
 HarFok:  IExCor= 1009 AccDes= 0.00D+00 IRadAn=         5 IDoV= 1 UseB2=F ITyADJ=14
 ICtDFT=  3500011 ScaDFX=  1.000000  1.000000  1.000000  1.000000
 FoFCou: FMM=F IPFlag=           0 FMFlag=      100000 FMFlg1=           0
         NFxFlg=           0 DoJE=T BraDBF=F KetDBF=T FulRan=T
         wScrn=  0.000000 ICntrl=       500 IOpCl=  0 I1Cent=   200000004 NGrid=           0
         NMat0=    1 NMatS0=      1 NMatT0=    0 NMatD0=    1 NMtDS0=    0 NMtDT0=    0
 Symmetry not used in FoFCou.
 Harris En= -1373.26771014874    
 JPrj=0 DoOrth=F DoCkMO=F.
 Leave Link  401 at Mon Jan 31 14:46:15 2022, MaxMem= 11408506880 cpu:              63.6 elap:               5.6
@@@@@@@@@@@@@@@@@@@@@@@@@@@@@@@@@@@@@@@@@@@@@@@@@@@@@@@@@@@
@    WARNING: REMOTE HOST IDENTIFICATION HAS CHANGED!     @
@@@@@@@@@@@@@@@@@@@@@@@@@@@@@@@@@@@@@@@@@@@@@@@@@@@@@@@@@@@
IT IS POSSIBLE THAT SOMEONE IS DOING SOMETHING NASTY!
Someone could be eavesdropping on you right now (man-in-the-middle attack)!
It is also possible that a host key has just been changed.
The fingerprint for the ECDSA key sent by the remote host is
SHA256:DqgHnisVKxeA6JOnN38m9cKreYyEpo8e52yC5CvGJK8.
Please contact your system administrator.
Add correct host key in /lustre2/home/toliste/.ssh/known_hosts to get rid of this message.
Offending ECDSA key in /lustre2/home/toliste/.ssh/known_hosts:44
Password authentication is disabled to avoid man-in-the-middle attacks.
Keyboard-interactive authentication is disabled to avoid man-in-the-middle attacks.
@@@@@@@@@@@@@@@@@@@@@@@@@@@@@@@@@@@@@@@@@@@@@@@@@@@@@@@@@@@
@    WARNING: REMOTE HOST IDENTIFICATION HAS CHANGED!     @
@@@@@@@@@@@@@@@@@@@@@@@@@@@@@@@@@@@@@@@@@@@@@@@@@@@@@@@@@@@
IT IS POSSIBLE THAT SOMEONE IS DOING SOMETHING NASTY!
Someone could be eavesdropping on you right now (man-in-the-middle attack)!
It is also possible that a host key has just been changed.
The fingerprint for the ECDSA key sent by the remote host is
SHA256:KZqoUv2lFt2Xik+CAHlyqXW42VGQuri4bjs+H5gS/9Y.
Please contact your system administrator.
Add correct host key in /lustre2/home/toliste/.ssh/known_hosts to get rid of this message.
Offending ECDSA key in /lustre2/home/toliste/.ssh/known_hosts:45
Password authentication is disabled to avoid man-in-the-middle attacks.
Keyboard-interactive authentication is disabled to avoid man-in-the-middle attacks.
@@@@@@@@@@@@@@@@@@@@@@@@@@@@@@@@@@@@@@@@@@@@@@@@@@@@@@@@@@@
@    WARNING: REMOTE HOST IDENTIFICATION HAS CHANGED!     @
@@@@@@@@@@@@@@@@@@@@@@@@@@@@@@@@@@@@@@@@@@@@@@@@@@@@@@@@@@@
IT IS POSSIBLE THAT SOMEONE IS DOING SOMETHING NASTY!
Someone could be eavesdropping on you right now (man-in-the-middle attack)!
It is also possible that a host key has just been changed.
The fingerprint for the ECDSA key sent by the remote host is
SHA256:Ki/B3btCxo943N1v5zDKOfUYHONPxVQ2BEdbCqI5VQc.
Please contact your system administrator.
Add correct host key in /lustre2/home/toliste/.ssh/known_hosts to get rid of this message.
Offending ECDSA key in /lustre2/home/toliste/.ssh/known_hosts:75
Password authentication is disabled to avoid man-in-the-middle attacks.
Keyboard-interactive authentication is disabled to avoid man-in-the-middle attacks.
@@@@@@@@@@@@@@@@@@@@@@@@@@@@@@@@@@@@@@@@@@@@@@@@@@@@@@@@@@@
@    WARNING: REMOTE HOST IDENTIFICATION HAS CHANGED!     @
@@@@@@@@@@@@@@@@@@@@@@@@@@@@@@@@@@@@@@@@@@@@@@@@@@@@@@@@@@@
IT IS POSSIBLE THAT SOMEONE IS DOING SOMETHING NASTY!
Someone could be eavesdropping on you right now (man-in-the-middle attack)!
It is also possible that a host key has just been changed.
The fingerprint for the ECDSA key sent by the remote host is
SHA256:DP5fYOj91xT5BZ0MiXrYOGjsngnEr0BFRwW/ADUFvIo.
Please contact your system administrator.
Add correct host key in /lustre2/home/toliste/.ssh/known_hosts to get rid of this message.
Offending ECDSA key in /lustre2/home/toliste/.ssh/known_hosts:187
Password authentication is disabled to avoid man-in-the-middle attacks.
Keyboard-interactive authentication is disabled to avoid man-in-the-middle attacks.
@@@@@@@@@@@@@@@@@@@@@@@@@@@@@@@@@@@@@@@@@@@@@@@@@@@@@@@@@@@
@    WARNING: REMOTE HOST IDENTIFICATION HAS CHANGED!     @
@@@@@@@@@@@@@@@@@@@@@@@@@@@@@@@@@@@@@@@@@@@@@@@@@@@@@@@@@@@
IT IS POSSIBLE THAT SOMEONE IS DOING SOMETHING NASTY!
Someone could be eavesdropping on you right now (man-in-the-middle attack)!
It is also possible that a host key has just been changed.
The fingerprint for the ECDSA key sent by the remote host is
SHA256:GrKekbUI0EXjIn2+8KWdVGCxz/8JpOOEF1MyBm+WVPs.
Please contact your system administrator.
Add correct host key in /lustre2/home/toliste/.ssh/known_hosts to get rid of this message.
Offending ECDSA key in /lustre2/home/toliste/.ssh/known_hosts:76
Password authentication is disabled to avoid man-in-the-middle attacks.
Keyboard-interactive authentication is disabled to avoid man-in-the-middle attacks.
 (Enter /lustre1/prg/gaussian/bin/G16_C01_Linda9.2_SSE4/g16/linda-exe/l502.exel)
 Two-electron integral symmetry not used.
 Closed shell SCF:
 Using DIIS extrapolation, IDIIS=  1040.
 NGot= 11408506880 LenX= 11407832935 LenY= 11407501735
 Requested convergence on RMS density matrix=1.00D-08 within 128 cycles.
 Requested convergence on MAX density matrix=1.00D-06.
 Requested convergence on             energy=1.00D-06.
 No special actions if energy rises.
 Fock matrices will be formed incrementally for  20 cycles.

 Cycle   1  Pass 1  IDiag  1:
 FoFJK:  IHMeth= 1 ICntrl=       0 DoSepK=F KAlg= 0 I1Cent=           0 FoldK=F
 IRaf= 690000000 NMat=       1 IRICut=       1 DoRegI=T DoRafI=F ISym2E= 0 IDoP0=0 IntGTp=1.
 FoFCou: FMM=F IPFlag=           0 FMFlag=      100000 FMFlg1=           0
         NFxFlg=           0 DoJE=F BraDBF=F KetDBF=F FulRan=T
         wScrn=  0.000000 ICntrl=         0 IOpCl=  0 I1Cent=           0 NGrid=           0
         NMat0=    1 NMatS0=      1 NMatT0=    0 NMatD0=    1 NMtDS0=    0 NMtDT0=    0
 Symmetry not used in FoFCou.
 Inv3:  Mode=1 IEnd=    43937787.
 Iteration    1 A*A^-1 deviation from unit magnitude is 7.11D-15 for   1266.
 Iteration    1 A*A^-1 deviation from orthogonality  is 4.15D-15 for   3823   1111.
 Iteration    1 A^-1*A deviation from unit magnitude is 7.22D-15 for    941.
 Iteration    1 A^-1*A deviation from orthogonality  is 3.23D-15 for   2038    687.
 E= -1373.61439267658    
 DIIS: error= 4.36D-02 at cycle   1 NSaved=   1.
 NSaved= 1 IEnMin= 1 EnMin= -1373.61439267658     IErMin= 1 ErrMin= 4.36D-02
 ErrMax= 4.36D-02  0.00D+00 EMaxC= 1.00D-01 BMatC= 5.21D-01 BMatP= 5.21D-01
 IDIUse=3 WtCom= 5.64D-01 WtEn= 4.36D-01
 Coeff-Com:  0.100D+01
 Coeff-En:   0.100D+01
 Coeff:      0.100D+01
 Gap=     0.124 Goal=   None    Shift=    0.000
 GapD=    0.124 DampG=1.000 DampE=0.500 DampFc=0.5000 IDamp=-1.
 Damping current iteration by 5.00D-01
 RMSDP=3.25D-03 MaxDP=1.00D-01              OVMax= 1.60D-01

 Cycle   2  Pass 1  IDiag  1:
 RMSU=  1.52D-03    CP:  9.62D-01
 E= -1373.88824487305     Delta-E=       -0.273852196471 Rises=F Damp=T
 DIIS: error= 8.68D-03 at cycle   2 NSaved=   2.
 NSaved= 2 IEnMin= 2 EnMin= -1373.88824487305     IErMin= 2 ErrMin= 8.68D-03
 ErrMax= 8.68D-03  0.00D+00 EMaxC= 1.00D-01 BMatC= 4.53D-02 BMatP= 5.21D-01
 IDIUse=3 WtCom= 9.13D-01 WtEn= 8.68D-02
 Coeff-Com: -0.133D+00 0.113D+01
 Coeff-En:   0.000D+00 0.100D+01
 Coeff:     -0.121D+00 0.112D+01
 Gap=     0.158 Goal=   None    Shift=    0.000
 RMSDP=1.15D-03 MaxDP=6.77D-02 DE=-2.74D-01 OVMax= 9.97D-02

 Cycle   3  Pass 1  IDiag  1:
 RMSU=  8.26D-04    CP:  9.35D-01  1.45D+00
 E= -1374.12793274512     Delta-E=       -0.239687872071 Rises=F Damp=F
 DIIS: error= 5.46D-03 at cycle   3 NSaved=   3.
 NSaved= 3 IEnMin= 3 EnMin= -1374.12793274512     IErMin= 3 ErrMin= 5.46D-03
 ErrMax= 5.46D-03  0.00D+00 EMaxC= 1.00D-01 BMatC= 2.05D-02 BMatP= 4.53D-02
 IDIUse=3 WtCom= 9.45D-01 WtEn= 5.46D-02
 Coeff-Com: -0.116D+00 0.487D+00 0.630D+00
 Coeff-En:   0.000D+00 0.000D+00 0.100D+01
 Coeff:     -0.110D+00 0.460D+00 0.650D+00
 Gap=     0.133 Goal=   None    Shift=    0.000
 RMSDP=3.62D-04 MaxDP=2.77D-02 DE=-2.40D-01 OVMax= 5.40D-02

 Cycle   4  Pass 1  IDiag  1:
 RMSU=  2.57D-04    CP:  9.37D-01  1.48D+00  6.98D-01
 E= -1374.14397248169     Delta-E=       -0.016039736568 Rises=F Damp=F
 DIIS: error= 2.57D-03 at cycle   4 NSaved=   4.
 NSaved= 4 IEnMin= 4 EnMin= -1374.14397248169     IErMin= 4 ErrMin= 2.57D-03
 ErrMax= 2.57D-03  0.00D+00 EMaxC= 1.00D-01 BMatC= 4.49D-03 BMatP= 2.05D-02
 IDIUse=3 WtCom= 9.74D-01 WtEn= 2.57D-02
 Coeff-Com: -0.394D-01 0.111D+00 0.353D+00 0.576D+00
 Coeff-En:   0.000D+00 0.000D+00 0.173D+00 0.827D+00
 Coeff:     -0.384D-01 0.108D+00 0.348D+00 0.583D+00
 Gap=     0.136 Goal=   None    Shift=    0.000
 RMSDP=1.31D-04 MaxDP=9.97D-03 DE=-1.60D-02 OVMax= 2.05D-02

 Cycle   5  Pass 1  IDiag  1:
 RMSU=  6.21D-05    CP:  9.36D-01  1.48D+00  7.88D-01  6.64D-01
 E= -1374.14837825048     Delta-E=       -0.004405768797 Rises=F Damp=F
 DIIS: error= 3.48D-04 at cycle   5 NSaved=   5.
 NSaved= 5 IEnMin= 5 EnMin= -1374.14837825048     IErMin= 5 ErrMin= 3.48D-04
 ErrMax= 3.48D-04  0.00D+00 EMaxC= 1.00D-01 BMatC= 1.90D-04 BMatP= 4.49D-03
 IDIUse=3 WtCom= 9.97D-01 WtEn= 3.48D-03
 Coeff-Com: -0.885D-02 0.142D-01 0.108D+00 0.257D+00 0.629D+00
 Coeff-En:   0.000D+00 0.000D+00 0.000D+00 0.000D+00 0.100D+01
 Coeff:     -0.882D-02 0.142D-01 0.108D+00 0.256D+00 0.631D+00
 Gap=     0.136 Goal=   None    Shift=    0.000
 RMSDP=2.94D-05 MaxDP=1.69D-03 DE=-4.41D-03 OVMax= 3.23D-03

 Cycle   6  Pass 1  IDiag  1:
 RMSU=  2.11D-05    CP:  9.36D-01  1.48D+00  7.91D-01  7.02D-01  7.28D-01
 E= -1374.14856554555     Delta-E=       -0.000187295069 Rises=F Damp=F
 DIIS: error= 1.22D-04 at cycle   6 NSaved=   6.
 NSaved= 6 IEnMin= 6 EnMin= -1374.14856554555     IErMin= 6 ErrMin= 1.22D-04
 ErrMax= 1.22D-04  0.00D+00 EMaxC= 1.00D-01 BMatC= 1.12D-05 BMatP= 1.90D-04
 IDIUse=3 WtCom= 9.99D-01 WtEn= 1.22D-03
 Coeff-Com: -0.122D-02-0.481D-03 0.207D-01 0.631D-01 0.250D+00 0.667D+00
 Coeff-En:   0.000D+00 0.000D+00 0.000D+00 0.000D+00 0.000D+00 0.100D+01
 Coeff:     -0.121D-02-0.481D-03 0.207D-01 0.630D-01 0.250D+00 0.668D+00
 Gap=     0.136 Goal=   None    Shift=    0.000
 RMSDP=8.62D-06 MaxDP=3.70D-04 DE=-1.87D-04 OVMax= 1.87D-03

 Cycle   7  Pass 1  IDiag  1:
 RMSU=  6.66D-06    CP:  9.36D-01  1.48D+00  7.92D-01  7.06D-01  8.06D-01
                    CP:  9.09D-01
 E= -1374.14857952894     Delta-E=       -0.000013983391 Rises=F Damp=F
 DIIS: error= 3.10D-05 at cycle   7 NSaved=   7.
 NSaved= 7 IEnMin= 7 EnMin= -1374.14857952894     IErMin= 7 ErrMin= 3.10D-05
 ErrMax= 3.10D-05  0.00D+00 EMaxC= 1.00D-01 BMatC= 1.05D-06 BMatP= 1.12D-05
 IDIUse=1 WtCom= 1.00D+00 WtEn= 0.00D+00
 Coeff-Com:  0.741D-03-0.208D-02-0.645D-02-0.104D-01 0.220D-02 0.203D+00
 Coeff-Com:  0.813D+00
 Coeff:      0.741D-03-0.208D-02-0.645D-02-0.104D-01 0.220D-02 0.203D+00
 Coeff:      0.813D+00
 Gap=     0.136 Goal=   None    Shift=    0.000
 RMSDP=3.59D-06 MaxDP=1.15D-04 DE=-1.40D-05 OVMax= 6.21D-04

 Cycle   8  Pass 1  IDiag  1:
 RMSU=  2.29D-06    CP:  9.36D-01  1.48D+00  7.93D-01  7.10D-01  8.22D-01
                    CP:  1.02D+00  1.05D+00
 E= -1374.14858125800     Delta-E=       -0.000001729061 Rises=F Damp=F
 DIIS: error= 1.32D-05 at cycle   8 NSaved=   8.
 NSaved= 8 IEnMin= 8 EnMin= -1374.14858125800     IErMin= 8 ErrMin= 1.32D-05
 ErrMax= 1.32D-05  0.00D+00 EMaxC= 1.00D-01 BMatC= 2.32D-07 BMatP= 1.05D-06
 IDIUse=1 WtCom= 1.00D+00 WtEn= 0.00D+00
 Coeff-Com:  0.583D-03-0.934D-03-0.657D-02-0.157D-01-0.420D-01-0.114D-01
 Coeff-Com:  0.378D+00 0.698D+00
 Coeff:      0.583D-03-0.934D-03-0.657D-02-0.157D-01-0.420D-01-0.114D-01
 Coeff:      0.378D+00 0.698D+00
 Gap=     0.136 Goal=   None    Shift=    0.000
 RMSDP=1.58D-06 MaxDP=8.75D-05 DE=-1.73D-06 OVMax= 3.99D-04

 Cycle   9  Pass 1  IDiag  1:
 RMSU=  7.82D-07    CP:  9.36D-01  1.48D+00  7.93D-01  7.11D-01  8.31D-01
                    CP:  1.05D+00  1.17D+00  8.39D-01
 E= -1374.14858163478     Delta-E=       -0.000000376772 Rises=F Damp=F
 DIIS: error= 2.94D-06 at cycle   9 NSaved=   9.
 NSaved= 9 IEnMin= 9 EnMin= -1374.14858163478     IErMin= 9 ErrMin= 2.94D-06
 ErrMax= 2.94D-06  0.00D+00 EMaxC= 1.00D-01 BMatC= 9.99D-09 BMatP= 2.32D-07
 IDIUse=1 WtCom= 1.00D+00 WtEn= 0.00D+00
 Coeff-Com:  0.820D-04-0.749D-04-0.930D-03-0.257D-02-0.939D-02-0.130D-01
 Coeff-Com:  0.184D-01 0.167D+00 0.841D+00
 Coeff:      0.820D-04-0.749D-04-0.930D-03-0.257D-02-0.939D-02-0.130D-01
 Coeff:      0.184D-01 0.167D+00 0.841D+00
 Gap=     0.136 Goal=   None    Shift=    0.000
 RMSDP=4.34D-07 MaxDP=1.49D-05 DE=-3.77D-07 OVMax= 9.88D-05

 Cycle  10  Pass 1  IDiag  1:
 RMSU=  2.55D-07    CP:  9.36D-01  1.48D+00  7.93D-01  7.11D-01  8.32D-01
                    CP:  1.06D+00  1.20D+00  9.28D-01  1.07D+00
 E= -1374.14858165493     Delta-E=       -0.000000020149 Rises=F Damp=F
 DIIS: error= 1.30D-06 at cycle  10 NSaved=  10.
 NSaved=10 IEnMin=10 EnMin= -1374.14858165493     IErMin=10 ErrMin= 1.30D-06
 ErrMax= 1.30D-06  0.00D+00 EMaxC= 1.00D-01 BMatC= 2.15D-09 BMatP= 9.99D-09
 IDIUse=1 WtCom= 1.00D+00 WtEn= 0.00D+00
 Coeff-Com: -0.377D-04 0.829D-04 0.450D-03 0.967D-03 0.132D-02-0.424D-02
 Coeff-Com: -0.457D-01-0.166D-01 0.347D+00 0.716D+00
 Coeff:     -0.377D-04 0.829D-04 0.450D-03 0.967D-03 0.132D-02-0.424D-02
 Coeff:     -0.457D-01-0.166D-01 0.347D+00 0.716D+00
 Gap=     0.136 Goal=   None    Shift=    0.000
 RMSDP=1.55D-07 MaxDP=6.75D-06 DE=-2.01D-08 OVMax= 4.11D-05

 Cycle  11  Pass 1  IDiag  1:
 RMSU=  8.82D-08    CP:  9.36D-01  1.48D+00  7.93D-01  7.11D-01  8.33D-01
                    CP:  1.07D+00  1.20D+00  9.51D-01  1.18D+00  9.66D-01
 E= -1374.14858165837     Delta-E=       -0.000000003445 Rises=F Damp=F
 DIIS: error= 7.37D-07 at cycle  11 NSaved=  11.
 NSaved=11 IEnMin=11 EnMin= -1374.14858165837     IErMin=11 ErrMin= 7.37D-07
 ErrMax= 7.37D-07  0.00D+00 EMaxC= 1.00D-01 BMatC= 3.32D-10 BMatP= 2.15D-09
 IDIUse=1 WtCom= 1.00D+00 WtEn= 0.00D+00
 Coeff-Com: -0.264D-04 0.460D-04 0.308D-03 0.739D-03 0.166D-02-0.329D-03
 Coeff-Com: -0.235D-01-0.252D-01 0.515D-01 0.333D+00 0.662D+00
 Coeff:     -0.264D-04 0.460D-04 0.308D-03 0.739D-03 0.166D-02-0.329D-03
 Coeff:     -0.235D-01-0.252D-01 0.515D-01 0.333D+00 0.662D+00
 Gap=     0.136 Goal=   None    Shift=    0.000
 RMSDP=5.48D-08 MaxDP=2.22D-06 DE=-3.45D-09 OVMax= 8.76D-06

 Cycle  12  Pass 1  IDiag  1:
 RMSU=  3.26D-08    CP:  9.36D-01  1.48D+00  7.93D-01  7.11D-01  8.33D-01
                    CP:  1.07D+00  1.21D+00  9.56D-01  1.21D+00  1.07D+00
                    CP:  9.28D-01
 E= -1374.14858165872     Delta-E=       -0.000000000348 Rises=F Damp=F
 DIIS: error= 1.59D-07 at cycle  12 NSaved=  12.
 NSaved=12 IEnMin=12 EnMin= -1374.14858165872     IErMin=12 ErrMin= 1.59D-07
 ErrMax= 1.59D-07  0.00D+00 EMaxC= 1.00D-01 BMatC= 2.94D-11 BMatP= 3.32D-10
 IDIUse=1 WtCom= 1.00D+00 WtEn= 0.00D+00
 Coeff-Com: -0.491D-05 0.658D-05 0.601D-04 0.160D-03 0.447D-03 0.444D-03
 Coeff-Com: -0.337D-02-0.500D-02-0.214D-01 0.597D-01 0.250D+00 0.719D+00
 Coeff:     -0.491D-05 0.658D-05 0.601D-04 0.160D-03 0.447D-03 0.444D-03
 Coeff:     -0.337D-02-0.500D-02-0.214D-01 0.597D-01 0.250D+00 0.719D+00
 Gap=     0.136 Goal=   None    Shift=    0.000
 RMSDP=1.67D-08 MaxDP=1.12D-06 DE=-3.48D-10 OVMax= 4.75D-06

 Cycle  13  Pass 1  IDiag  1:
 RMSU=  1.16D-08    CP:  9.36D-01  1.48D+00  7.93D-01  7.11D-01  8.33D-01
                    CP:  1.07D+00  1.21D+00  9.58D-01  1.21D+00  1.09D+00
                    CP:  1.02D+00  9.21D-01
 E= -1374.14858165863     Delta-E=        0.000000000085 Rises=F Damp=F
 DIIS: error= 5.87D-08 at cycle  13 NSaved=  13.
 NSaved=13 IEnMin=12 EnMin= -1374.14858165872     IErMin=13 ErrMin= 5.87D-08
 ErrMax= 5.87D-08  0.00D+00 EMaxC= 1.00D-01 BMatC= 5.21D-12 BMatP= 2.94D-11
 IDIUse=1 WtCom= 1.00D+00 WtEn= 0.00D+00
 Coeff-Com:  0.190D-05-0.389D-05-0.209D-04-0.458D-04-0.677D-04 0.181D-03
 Coeff-Com:  0.163D-02 0.197D-02-0.176D-01-0.218D-01-0.309D-01 0.243D+00
 Coeff-Com:  0.824D+00
 Coeff:      0.190D-05-0.389D-05-0.209D-04-0.458D-04-0.677D-04 0.181D-03
 Coeff:      0.163D-02 0.197D-02-0.176D-01-0.218D-01-0.309D-01 0.243D+00
 Coeff:      0.824D+00
 Gap=     0.136 Goal=   None    Shift=    0.000
 RMSDP=9.51D-09 MaxDP=2.89D-07 DE= 8.46D-11 OVMax= 1.75D-06

 Error on total polarization charges =  0.01594
 SCF Done:  E(RM062X) =  -1374.14858166     A.U. after   13 cycles
            NFock= 13  Conv=0.95D-08     -V/T= 2.0063
 KE= 1.365536718744D+03 PE=-8.909857545879D+03 EE= 3.315388185127D+03
 Leave Link  502 at Mon Jan 31 14:48:56 2022, MaxMem= 11408506880 cpu:            1787.8 elap:             158.0
 (Enter /lustre1/prg/gaussian/bin/G16_C01_Linda9.2_SSE4/g16/l801.exe)
 DoSCS=F DFT=T ScalE2(SS,OS)=  1.000000  1.000000
 ExpMin= 9.54D-02 ExpMax= 1.47D+04 ExpMxC= 5.03D+02 IAcc=3 IRadAn=         5 AccDes= 0.00D+00
 HarFok:  IExCor=  205 AccDes= 0.00D+00 IRadAn=         5 IDoV=-2 UseB2=F ITyADJ=14
 ICtDFT= 12500011 ScaDFX=  1.000000  1.000000  1.000000  1.000000
 GSVD:  LWork=       -1280 too small for GESVD, short by        5600 words or        5600 for optimal perf.
 Largest valence mixing into a core orbital is  7.94D-05
 Largest core mixing into a valence orbital is  5.09D-05
 Range of M.O.s used for correlation:    33   543
 NBasis=   543 NAE=   109 NBE=   109 NFC=    32 NFV=     0
 NROrb=    511 NOA=    77 NOB=    77 NVA=   434 NVB=   434

 **** Warning!!: The largest alpha MO coefficient is  0.12221721D+02

 Leave Link  801 at Mon Jan 31 14:48:57 2022, MaxMem= 11408506880 cpu:               4.3 elap:               0.4
@@@@@@@@@@@@@@@@@@@@@@@@@@@@@@@@@@@@@@@@@@@@@@@@@@@@@@@@@@@
@    WARNING: REMOTE HOST IDENTIFICATION HAS CHANGED!     @
@@@@@@@@@@@@@@@@@@@@@@@@@@@@@@@@@@@@@@@@@@@@@@@@@@@@@@@@@@@
IT IS POSSIBLE THAT SOMEONE IS DOING SOMETHING NASTY!
Someone could be eavesdropping on you right now (man-in-the-middle attack)!
It is also possible that a host key has just been changed.
The fingerprint for the ECDSA key sent by the remote host is
SHA256:DqgHnisVKxeA6JOnN38m9cKreYyEpo8e52yC5CvGJK8.
Please contact your system administrator.
Add correct host key in /lustre2/home/toliste/.ssh/known_hosts to get rid of this message.
Offending ECDSA key in /lustre2/home/toliste/.ssh/known_hosts:44
Password authentication is disabled to avoid man-in-the-middle attacks.
Keyboard-interactive authentication is disabled to avoid man-in-the-middle attacks.
@@@@@@@@@@@@@@@@@@@@@@@@@@@@@@@@@@@@@@@@@@@@@@@@@@@@@@@@@@@
@    WARNING: REMOTE HOST IDENTIFICATION HAS CHANGED!     @
@@@@@@@@@@@@@@@@@@@@@@@@@@@@@@@@@@@@@@@@@@@@@@@@@@@@@@@@@@@
IT IS POSSIBLE THAT SOMEONE IS DOING SOMETHING NASTY!
Someone could be eavesdropping on you right now (man-in-the-middle attack)!
It is also possible that a host key has just been changed.
The fingerprint for the ECDSA key sent by the remote host is
SHA256:Ki/B3btCxo943N1v5zDKOfUYHONPxVQ2BEdbCqI5VQc.
Please contact your system administrator.
Add correct host key in /lustre2/home/toliste/.ssh/known_hosts to get rid of this message.
Offending ECDSA key in /lustre2/home/toliste/.ssh/known_hosts:75
Password authentication is disabled to avoid man-in-the-middle attacks.
Keyboard-interactive authentication is disabled to avoid man-in-the-middle attacks.
@@@@@@@@@@@@@@@@@@@@@@@@@@@@@@@@@@@@@@@@@@@@@@@@@@@@@@@@@@@
@    WARNING: REMOTE HOST IDENTIFICATION HAS CHANGED!     @
@@@@@@@@@@@@@@@@@@@@@@@@@@@@@@@@@@@@@@@@@@@@@@@@@@@@@@@@@@@
IT IS POSSIBLE THAT SOMEONE IS DOING SOMETHING NASTY!
Someone could be eavesdropping on you right now (man-in-the-middle attack)!
It is also possible that a host key has just been changed.
The fingerprint for the ECDSA key sent by the remote host is
SHA256:GrKekbUI0EXjIn2+8KWdVGCxz/8JpOOEF1MyBm+WVPs.
Please contact your system administrator.
Add correct host key in /lustre2/home/toliste/.ssh/known_hosts to get rid of this message.
Offending ECDSA key in /lustre2/home/toliste/.ssh/known_hosts:76
Password authentication is disabled to avoid man-in-the-middle attacks.
Keyboard-interactive authentication is disabled to avoid man-in-the-middle attacks.
@@@@@@@@@@@@@@@@@@@@@@@@@@@@@@@@@@@@@@@@@@@@@@@@@@@@@@@@@@@
@    WARNING: REMOTE HOST IDENTIFICATION HAS CHANGED!     @
@@@@@@@@@@@@@@@@@@@@@@@@@@@@@@@@@@@@@@@@@@@@@@@@@@@@@@@@@@@
IT IS POSSIBLE THAT SOMEONE IS DOING SOMETHING NASTY!
Someone could be eavesdropping on you right now (man-in-the-middle attack)!
It is also possible that a host key has just been changed.
The fingerprint for the ECDSA key sent by the remote host is
SHA256:DP5fYOj91xT5BZ0MiXrYOGjsngnEr0BFRwW/ADUFvIo.
Please contact your system administrator.
Add correct host key in /lustre2/home/toliste/.ssh/known_hosts to get rid of this message.
Offending ECDSA key in /lustre2/home/toliste/.ssh/known_hosts:187
Password authentication is disabled to avoid man-in-the-middle attacks.
Keyboard-interactive authentication is disabled to avoid man-in-the-middle attacks.
@@@@@@@@@@@@@@@@@@@@@@@@@@@@@@@@@@@@@@@@@@@@@@@@@@@@@@@@@@@
@    WARNING: REMOTE HOST IDENTIFICATION HAS CHANGED!     @
@@@@@@@@@@@@@@@@@@@@@@@@@@@@@@@@@@@@@@@@@@@@@@@@@@@@@@@@@@@
IT IS POSSIBLE THAT SOMEONE IS DOING SOMETHING NASTY!
Someone could be eavesdropping on you right now (man-in-the-middle attack)!
It is also possible that a host key has just been changed.
The fingerprint for the ECDSA key sent by the remote host is
SHA256:KZqoUv2lFt2Xik+CAHlyqXW42VGQuri4bjs+H5gS/9Y.
Please contact your system administrator.
Add correct host key in /lustre2/home/toliste/.ssh/known_hosts to get rid of this message.
Offending ECDSA key in /lustre2/home/toliste/.ssh/known_hosts:45
Password authentication is disabled to avoid man-in-the-middle attacks.
Keyboard-interactive authentication is disabled to avoid man-in-the-middle attacks.
 (Enter /lustre1/prg/gaussian/bin/G16_C01_Linda9.2_SSE4/g16/linda-exe/l914.exel)
 RHF ground state
 Two-electron integral symmetry not used.
 MDV= 11408506880 DFT=T DoStab=F Mixed=T DoRPA=T DoScal=F NonHer=T
 NEqPCM:  Using equilibrium solvation (IEInf=0, Eps=  32.6130, EpsInf=   1.7657)
 Making orbital integer symmetry assigments:
    24 initial guesses have been made.
 Convergence on wavefunction:    0.000001000000000
 Davidson Disk Diagonalization:  ConvIn= 1.00D-06 SkipCon=T Conv= 1.00D-06.
 Max sub-space:  2000 roots to seek:    24 dimension of matrix:        66836
 Iteration     1 Dimension    24 NMult     0 NNew     24
 CISAX will form    24 AO SS matrices at one time.
 NMat=    24 NSing=    24 JSym2X= 0.
 FoFJK:  IHMeth= 1 ICntrl=       0 DoSepK=F KAlg= 0 I1Cent=           0 FoldK=F
 IRaf= 690000000 NMat=      48 IRICut=      60 DoRegI=T DoRafI=T ISym2E= 0 IDoP0=3 IntGTp=3.
 FoFCou: FMM=F IPFlag=           0 FMFlag=      100000 FMFlg1=           0
         NFxFlg=           0 DoJE=F BraDBF=F KetDBF=F FulRan=T
         wScrn=  0.000000 ICntrl=         0 IOpCl=  0 I1Cent=           0 NGrid=           0
[...]
 Alpha virt. eigenvalues --    1.11210   1.11930   1.12417   1.12654   1.13136
 Alpha virt. eigenvalues --    1.13587   1.14012   1.14967   1.16080   1.16978
 Alpha virt. eigenvalues --    1.18327   1.19847   1.23095   1.25707   1.26107
 Alpha virt. eigenvalues --    1.30308   1.30936   1.31191   1.32568   1.32864
 Alpha virt. eigenvalues --    1.33003   1.33800   1.34408   1.34517   1.35027
 Alpha virt. eigenvalues --    1.35966   1.37072   1.37227   1.37958   1.39356
 Alpha virt. eigenvalues --    1.40086   1.40134   1.41461   1.43056   1.43445
 Alpha virt. eigenvalues --    1.43486   1.45456   1.45482   1.46670   1.48681
 Alpha virt. eigenvalues --    1.49089   1.49871   1.50527   1.50596   1.51030
 Alpha virt. eigenvalues --    1.51796   1.51888   1.52666   1.52718   1.53278
 Alpha virt. eigenvalues --    1.53889   1.54616   1.54736   1.55580   1.55637
 Alpha virt. eigenvalues --    1.56297   1.56678   1.57360   1.58673   1.59699
 Alpha virt. eigenvalues --    1.59728   1.60867   1.61685   1.62141   1.63476
 Alpha virt. eigenvalues --    1.63892   1.63965   1.64513   1.64614   1.64688
 Alpha virt. eigenvalues --    1.64725   1.65063   1.65670   1.66109   1.66152
 Alpha virt. eigenvalues --    1.66535   1.66974   1.67355   1.67799   1.68219
 Alpha virt. eigenvalues --    1.69048   1.69642   1.69825   1.70243   1.70791
 Alpha virt. eigenvalues --    1.71049   1.71341   1.72077   1.72336   1.73842
 Alpha virt. eigenvalues --    1.74563   1.74850   1.75572   1.75988   1.76895
 Alpha virt. eigenvalues --    1.77041   1.77465   1.78087   1.78540   1.78946
 Alpha virt. eigenvalues --    1.79296   1.80316   1.80619   1.81047   1.81563
 Alpha virt. eigenvalues --    1.82143   1.83210   1.83889   1.83901   1.84733
 Alpha virt. eigenvalues --    1.84863   1.85093   1.86158   1.86349   1.87705
 Alpha virt. eigenvalues --    1.88143   1.88262   1.88629   1.88704   1.89087
 Alpha virt. eigenvalues --    1.89327   1.89495   1.90007   1.90423   1.90970
 Alpha virt. eigenvalues --    1.92385   1.93086   1.93345   1.93906   1.94179
 Alpha virt. eigenvalues --    1.95173   1.97056   1.97752   1.98322   1.98377
 Alpha virt. eigenvalues --    1.99945   2.00400   2.00407   2.01370   2.02694
 Alpha virt. eigenvalues --    2.02982   2.03450   2.03681   2.03709   2.04430
 Alpha virt. eigenvalues --    2.04729   2.06468   2.08030   2.09792   2.10622
 Alpha virt. eigenvalues --    2.11872   2.14148   2.14535   2.15139   2.16570
 Alpha virt. eigenvalues --    2.17020   2.17783   2.19434   2.21454   2.22972
 Alpha virt. eigenvalues --    2.23020   2.24415   2.24579   2.26634   2.30034
 Alpha virt. eigenvalues --    2.31031   2.31617   2.32061   2.32104   2.33761
 Alpha virt. eigenvalues --    2.35284   2.35446   2.38704   2.39591   2.40085
 Alpha virt. eigenvalues --    2.40133   2.40736   2.41256   2.43539   2.43748
 Alpha virt. eigenvalues --    2.44512   2.45848   2.46392   2.46741   2.46916
 Alpha virt. eigenvalues --    2.47755   2.48613   2.49635   2.49957   2.51316
 Alpha virt. eigenvalues --    2.52293   2.53514   2.55108   2.58302   2.63151
 Alpha virt. eigenvalues --    2.65342   2.66544   2.66845   2.68752   2.70209
 Alpha virt. eigenvalues --    2.71845   2.72107   2.72909   2.73535   2.73576
 Alpha virt. eigenvalues --    2.74184   2.77584   2.83128   2.83526   2.85270
 Alpha virt. eigenvalues --    2.88222   2.88880   2.89531   2.93451   2.93639
 Alpha virt. eigenvalues --    2.97122   2.98865   3.10007   3.11635   3.14888
 Alpha virt. eigenvalues --    3.15390   3.56003   3.59599   3.59669   3.68219
 Alpha virt. eigenvalues --    3.68413   3.71731   3.74368   3.76581   3.89045
 Alpha virt. eigenvalues --    4.03991   4.07300   4.11918   4.14158
          Condensed to atoms (all electrons):
 Mulliken charges:
               1
     1  N   -0.167792
     2  C    0.099954
     3  C   -0.039155
     4  C   -0.093877
     5  C    0.112186
     6  C   -0.017542
     7  C    0.013115
     8  C    0.031771
     9  C    0.013110
    10  C   -0.017574
    11  C    0.006029
    12  C    0.065316
    13  C    0.112280
    14  C   -0.094091
    15  C   -0.039220
    16  C    0.099871
    17  N   -0.167822
    18  F   -0.232460
    19  B    0.191069
    20  F   -0.228821
    21  H    0.056899
    22  H    0.035866
    23  H    0.030014
    24  H    0.032490
    25  H    0.036702
    26  H    0.032501
    27  H    0.030106
    28  H    0.035923
    29  H    0.056885
    30  C    0.017483
    31  C   -0.045649
    32  C   -0.047533
    33  C    0.009431
    34  C    0.008765
    35  C   -0.010145
    36  H    0.009415
    37  H    0.009664
    38  H    0.017633
    39  H    0.017947
    40  H    0.016151
    41  C    0.017652
    42  C   -0.047733
    43  C   -0.045779
    44  C    0.008839
    45  C    0.009467
    46  C   -0.010126
    47  H    0.009669
    48  H    0.009421
    49  H    0.017935
    50  H    0.017623
    51  H    0.016139
 Sum of Mulliken charges =  -0.00000
 Mulliken charges with hydrogens summed into heavy atoms:
               1
     1  N   -0.167792
     2  C    0.156852
     3  C   -0.039155
     4  C   -0.058011
     5  C    0.112186
     6  C    0.012473
     7  C    0.045606
     8  C    0.068472
     9  C    0.045611
    10  C    0.012532
    11  C    0.006029
    12  C    0.065316
    13  C    0.112280
    14  C   -0.058167
    15  C   -0.039220
    16  C    0.156756
    17  N   -0.167822
    18  F   -0.232460
    19  B    0.191069
    20  F   -0.228821
    30  C    0.017483
    31  C   -0.036234
    32  C   -0.037869
    33  C    0.027064
    34  C    0.026712
    35  C    0.006005
    41  C    0.017652
    42  C   -0.038064
    43  C   -0.036358
    44  C    0.026774
    45  C    0.027089
    46  C    0.006014
 Electronic spatial extent (au):  <R**2>=         178850.3098
 Charge=             -0.0000 electrons
 Dipole moment (field-independent basis, Debye):
    X=              0.0718    Y=              6.7521    Z=              4.4994  Tot=              8.1142
 Quadrupole moment (field-independent basis, Debye-Ang):
   XX=           -152.2703   YY=           -256.5047   ZZ=           -197.7119
   XY=             78.8517   XZ=             52.3185   YZ=            -32.8231
 Traceless Quadrupole moment (field-independent basis, Debye-Ang):
   XX=             49.8920   YY=            -54.3424   ZZ=              4.4504
   XY=             78.8517   XZ=             52.3185   YZ=            -32.8231
 Octapole moment (field-independent basis, Debye-Ang**2):
  XXX=          -5397.7049  YYY=           5126.6592  ZZZ=           -205.9873  XYY=          -3011.4638
  XXY=           2164.7391  XXZ=            627.6478  XZZ=          -2327.0125  YZZ=           1655.9604
  YYZ=            179.1003  XYZ=           -380.9246
 Hexadecapole moment (field-independent basis, Debye-Ang**3):
 XXXX=        -142181.8942 YYYY=         -84133.9432 ZZZZ=          -1672.6830 XXXY=          54615.1044
 XXXZ=           7833.4780 YYYX=          60241.4018 YYYZ=           -162.8884 ZZZX=          -2329.0047
 ZZZY=           1761.1092 XXYY=         -48598.4823 XXZZ=         -30375.6267 YYZZ=         -15171.2972
 XXYZ=          -4501.2563 YYXZ=           2088.2755 ZZXY=          19489.4479
 N-N= 2.852722983119D+03 E-N=-8.905681053986D+03  KE= 1.365493632472D+03

 **********************************************************************

            Population analysis using the CI Rho(1) Density.

 **********************************************************************

          Condensed to atoms (all electrons):
 Mulliken charges:
               1
     1  N   -0.155388
     2  C    0.121094
     3  C    0.046577
     4  C   -0.168859
     5  C    0.230187
     6  C   -0.072197
     7  C    0.011476
     8  C   -0.026240
     9  C    0.011472
    10  C   -0.072196
    11  C   -0.002420
    12  C   -0.228818
    13  C    0.230519
    14  C   -0.169020
    15  C    0.046693
    16  C    0.121274
    17  N   -0.155370
    18  F   -0.232849
    19  B    0.187259
    20  F   -0.228662
    21  H    0.056682
    22  H    0.034979
    23  H    0.027826
    24  H    0.032464
    25  H    0.036205
    26  H    0.032474
    27  H    0.027924
    28  H    0.035043
    29  H    0.056669
    30  C    0.030358
    31  C   -0.027908
    32  C   -0.026717
    33  C    0.011917
    34  C    0.009542
    35  C    0.014478
    36  H    0.009320
    37  H    0.009624
    38  H    0.017630
    39  H    0.017944
    40  H    0.016282
    41  C    0.030582
    42  C   -0.026836
    43  C   -0.027973
    44  C    0.009610
    45  C    0.011962
    46  C    0.014600
    47  H    0.009636
    48  H    0.009331
    49  H    0.017931
    50  H    0.017620
    51  H    0.016271
 Sum of Mulliken charges =  -0.00000
 Mulliken charges with hydrogens summed into heavy atoms:
               1
     1  N   -0.155388
     2  C    0.177776
     3  C    0.046577
     4  C   -0.133880
     5  C    0.230187
     6  C   -0.044371
     7  C    0.043939
     8  C    0.009965
     9  C    0.043946
    10  C   -0.044272
    11  C   -0.002420
    12  C   -0.228818
    13  C    0.230519
    14  C   -0.133977
    15  C    0.046693
    16  C    0.177943
    17  N   -0.155370
    18  F   -0.232849
    19  B    0.187259
    20  F   -0.228662
    30  C    0.030358
    31  C   -0.018588
    32  C   -0.017093
    33  C    0.029547
    34  C    0.027485
    35  C    0.030760
    41  C    0.030582
    42  C   -0.017200
    43  C   -0.018642
    44  C    0.027540
    45  C    0.029582
    46  C    0.030872
 Electronic spatial extent (au):  <R**2>=         178749.3462
 Charge=             -0.0000 electrons
 Dipole moment (field-independent basis, Debye):
    X=              0.0531    Y=             -0.3274    Z=              5.0754  Tot=              5.0862
 Quadrupole moment (field-independent basis, Debye-Ang):
   XX=           -119.9361   YY=           -153.9823   ZZ=           -196.7691
   XY=             -4.2677   XZ=             58.6693   YZ=            -40.2086
 Traceless Quadrupole moment (field-independent basis, Debye-Ang):
   XX=             36.9597   YY=              2.9136   ZZ=            -39.8733
   XY=             -4.2677   XZ=             58.6693   YZ=            -40.2086
 Octapole moment (field-independent basis, Debye-Ang**2):
  XXX=          -4249.0746  YYY=           3955.2609  ZZZ=           -202.8093  XYY=          -1806.6882
  XXY=            867.4538  XXZ=            734.4778  XZZ=          -2316.8717  YZZ=           1641.7884
  YYZ=            261.6380  XYZ=           -463.7278
 Hexadecapole moment (field-independent basis, Debye-Ang**3):
 XXXX=        -113940.6015 YYYY=         -71788.4146 ZZZZ=          -1665.4581 XXXY=          31815.9376
 XXXZ=           9890.8881 YYYX=          46470.2668 YYYZ=          -1042.3588 ZZZX=          -2294.4908
 ZZZY=           1726.9155 XXYY=         -31304.0938 XXZZ=         -30192.1494 YYZZ=         -15007.7430
 XXYZ=          -5792.5295 YYXZ=           3020.0446 ZZXY=          19331.9841
 N-N= 2.852722983119D+03 E-N=-8.905814021354D+03  KE= 1.365532531432D+03

 **********************************************************************

            Population analysis using the CI Density.

 **********************************************************************

          Condensed to atoms (all electrons):
 Mulliken charges:
               1
     1  N   -0.166114
     2  C    0.110306
     3  C   -0.019608
     4  C   -0.108148
     5  C    0.136540
     6  C   -0.049121
     7  C    0.008581
     8  C   -0.001493
     9  C    0.008582
    10  C   -0.049109
    11  C    0.022053
    12  C    0.000072
    13  C    0.136718
    14  C   -0.108310
    15  C   -0.019651
    16  C    0.110374
    17  N   -0.166142
    18  F   -0.231264
    19  B    0.191763
    20  F   -0.227205
    21  H    0.060186
    22  H    0.029990
    23  H    0.012004
    24  H    0.020399
    25  H    0.019830
    26  H    0.020410
    27  H    0.012097
    28  H    0.030092
    29  H    0.060224
    30  C    0.013371
    31  C   -0.032549
    32  C   -0.033544
    33  C    0.012257
    34  C    0.010596
    35  C    0.003658
    36  H    0.016764
    37  H    0.016886
    38  H    0.023201
    39  H    0.023345
    40  H    0.023841
    41  C    0.013546
    42  C   -0.033692
    43  C   -0.032627
    44  C    0.010680
    45  C    0.012307
    46  C    0.003745
    47  H    0.016929
    48  H    0.016804
    49  H    0.023353
    50  H    0.023214
    51  H    0.023862
 Sum of Mulliken charges =  -0.00000
 Mulliken charges with hydrogens summed into heavy atoms:
               1
     1  N   -0.166114
     2  C    0.170492
     3  C   -0.019608
     4  C   -0.078158
     5  C    0.136540
     6  C   -0.037117
     7  C    0.028980
     8  C    0.018337
     9  C    0.028992
    10  C   -0.037012
    11  C    0.022053
    12  C    0.000072
    13  C    0.136718
    14  C   -0.078218
    15  C   -0.019651
    16  C    0.170598
    17  N   -0.166142
    18  F   -0.231264
    19  B    0.191763
    20  F   -0.227205
    30  C    0.013371
    31  C   -0.015785
    32  C   -0.016658
    33  C    0.035459
    34  C    0.033941
    35  C    0.027499
    41  C    0.013546
    42  C   -0.016763
    43  C   -0.015823
    44  C    0.034033
    45  C    0.035520
    46  C    0.027606
 Electronic spatial extent (au):  <R**2>=         178772.0297
 Charge=              0.0000 electrons
 Dipole moment (field-independent basis, Debye):
    X=              0.0587    Y=              1.3438    Z=              5.1708  Tot=              5.3429
 Quadrupole moment (field-independent basis, Debye-Ang):
   XX=           -123.8120   YY=           -181.1890   ZZ=           -196.1966
   XY=             15.3409   XZ=             59.8480   YZ=            -40.4315
 Traceless Quadrupole moment (field-independent basis, Debye-Ang):
   XX=             43.2539   YY=            -14.1231   ZZ=            -29.1308
   XY=             15.3409   XZ=             59.8480   YZ=            -40.4315
 Octapole moment (field-independent basis, Debye-Ang**2):
  XXX=          -4387.8624  YYY=           4270.6063  ZZZ=           -201.2599  XYY=          -2126.3024
  XXY=           1128.9329  XXZ=            755.4536  XZZ=          -2310.3121  YZZ=           1636.5875
  YYZ=            258.5437  XYZ=           -466.8222
 Hexadecapole moment (field-independent basis, Debye-Ang**3):
 XXXX=        -117026.7850 YYYY=         -74940.1999 ZZZZ=          -1658.3612 XXXY=          35621.4950
 XXXZ=          10295.3481 YYYX=          50176.3917 YYYZ=           -980.3953 ZZZX=          -2277.3212
 ZZZY=           1713.7552 XXYY=         -35286.1292 XXZZ=         -30089.6967 YYZZ=         -14962.7992
 XXYZ=          -5887.5893 YYXZ=           2987.3895 ZZXY=          19272.2063
 N-N= 2.852722983119D+03 E-N=-8.905847244450D+03  KE= 1.365562632971D+03
 No NMR shielding tensors so no spin-rotation constants.
 Leave Link  601 at Mon Jan 31 21:12:37 2022, MaxMem= 11408506880 cpu:               9.6 elap:               1.0
 (Enter /lustre1/prg/gaussian/bin/G16_C01_Linda9.2_SSE4/g16/l9999.exe)
 Electronic transition elements 
                 1             2             3             4             5 
      1  -0.137408D+04 -0.137405D+04 -0.137404D+04 -0.137403D+04 -0.137401D+04
      2   0.349784D+01  0.129602D-02  0.121787D+01 -0.704887D-03 -0.723026D+00
      3  -0.307286D-02  0.261338D+01 -0.205155D-02  0.195271D+01 -0.485985D-03
      4  -0.447141D-01 -0.962568D-01 -0.154699D-01 -0.116744D+00  0.104786D-01
      5  -0.233887D+00 -0.100002D-03 -0.142488D+00  0.127299D-03  0.109116D+00
      6   0.201864D-03 -0.268542D+00  0.239162D-03 -0.245691D+00  0.597435D-04
      7   0.301407D-02  0.114037D-01  0.177968D-02  0.176200D-01 -0.157618D-02
      8  -0.395713D-01 -0.184531D+00 -0.310779D-01 -0.437128D+00  0.909297D-02
      9  -0.229152D+00 -0.251989D+00  0.248279D+00 -0.391674D+00  0.108062D+00
     10  -0.301482D+01 -0.596632D+01 -0.249424D+01 -0.545358D+01  0.625587D+00
     11  -0.103957D+02  0.204973D+01 -0.633112D+01  0.585092D+00  0.484875D+01
     12  -0.816986D-02  0.703573D+01 -0.796434D-02  0.569535D+01 -0.143368D-02
     13   0.914973D-02  0.140802D+00  0.123585D-02  0.374241D-01 -0.944570D-03
     14   0.417917D+01 -0.596851D+01  0.231769D+01 -0.546244D+01 -0.114050D+01
     15  -0.277521D+00  0.228671D+00 -0.144214D-01  0.385021D+00 -0.169722D-02
     16  -0.532818D-01 -0.292014D+00 -0.286965D-01 -0.326690D+00  0.163215D-01
                 6 
      1  -0.137399D+04
      2   0.349914D-02
      3   0.148949D+00
      4   0.654377D-01
      5  -0.110497D-02
      6  -0.247723D-01
      7  -0.134115D-01
      8   0.381433D+00
      9   0.321310D+00
     10  -0.637248D+00
     11   0.135567D+00
     12   0.112116D+01
     13  -0.422589D-01
     14  -0.589945D+00
     15  -0.314899D+00
     16   0.163318D+00
 Unable to Open any file for archive entry.
 1\1\VILNIUS-FIZIKA13\FOpt\RM062X TD-FC\CC-pVDZ\C27H19B1F2N2\TOLISTE\31
 -Jan-2022\0\\#p m062x cc-pvdz scrf=(cpcm,solvent=Methanol) td=(nstate=
 6,root=1) opt=tight nosymm density=all int=ultrafine fchk\\BDP-PP-phen
 yl, optimized R1 in toluene\\0,1\N,12.9480556712,-9.2082319042,-0.6325
 780004\C,14.1066115156,-9.818096075,-0.4073775352\C,14.943002858,-8.98
 11274853,0.3876295695\C,14.1977887286,-7.8120864242,0.6377396402\C,12.
 9565614829,-7.9469368969,-0.0038677859\C,10.5521184974,-4.9572939424,0
 .1329605362\C,10.559185865,-3.5705216114,0.2191588521\C,11.7636564573,
 -2.865687631,0.2633790324\C,12.9644156784,-3.5738539408,0.1839591272\C
 ,12.9651447748,-4.9606347594,0.0977138307\C,11.7574301057,-5.699238835
 3,0.1048355914\C,11.7540861134,-7.1488619367,0.0059533558\C,10.5497544
 872,-7.9440135968,0.0273366703\C,9.3257984966,-7.8066894374,0.70082463
 54\C,8.5713640576,-8.9736186336,0.4689871316\C,9.384928533,-9.81195128
 2,-0.348029797\N,10.5388734888,-9.2049179521,-0.6023114471\F,11.730054
 5798,-11.1163061912,-1.4765763395\B,11.7325088106,-9.7291517282,-1.434
 4428594\F,11.7171834306,-9.1767597802,-2.7153111846\H,14.2995668558,-1
 0.8028514149,-0.8259348362\H,14.4886373077,-6.9852209156,1.2762584779\
 H,9.5957117796,-5.4676237109,0.0514024262\H,9.6100986626,-3.0338276687
 ,0.2397817327\H,11.7661800083,-1.7778836692,0.333559934\H,13.915158163
 6,-3.0397563366,0.1765632709\H,13.9173734612,-5.473656955,-0.011655423
 1\H,9.0533692703,-6.9795649131,1.3470168523\H,9.1791124183,-10.7960696
 7,-0.7619562328\C,16.2945538088,-9.2983627588,0.8295966712\C,17.075255
 9705,-8.3332887131,1.4947238686\C,16.8509642793,-10.5736132045,0.60821
 93966\C,18.3622114423,-8.6345368053,1.9250406249\C,18.1385298896,-10.8
 709104161,1.0396876279\C,18.9005937781,-9.9042208889,1.700386057\H,16.
 6712986131,-7.335363738,1.6675037648\H,16.267614658,-11.3427440592,0.1
 012701773\H,18.9519461729,-7.8736694585,2.4370967731\H,18.5509102652,-
 11.8643485823,0.8612735183\H,19.9104607056,-10.1390084805,2.0378771328
 \C,7.2309654717,-9.2882375104,0.9453861874\C,6.6630032887,-10.55934677
 79,0.729562579\C,6.4728516062,-8.3249829458,1.6387831414\C,5.386066031
 8,-10.8543345614,1.1929944672\C,5.1964920745,-8.623925124,2.1010878995
 \C,4.6463526719,-9.8893823607,1.8811526923\H,7.2288865523,-11.32706182
 23,0.2011268103\H,6.8859468694,-7.33036215,1.808953005\H,4.9644730005,
 -11.8445142356,1.0180711178\H,4.6242526981,-7.8644898248,2.6347023142\
 H,3.6447545914,-10.1222482842,2.2436849478\\Version=ES64L-G16RevC.01\H
 F=-1374.149631\RMSD=5.532e-09\RMSF=4.956e-07\Dipole=0.0230899,0.528698
 9,2.0343364\Quadrupole=32.1582006,-10.500198,-21.6580026,11.4056042,44
 .4955024,-30.0598154\PG=C01 [X(C27H19B1F2N2)]\\@
 The archive entry for this job was punched.


 OPTIMIST - A PESSIMIST WHO LACKS EXPERIENCE
 Job cpu time:       0 days  0 hours  7 minutes 56.5 seconds.
 Elapsed time:       0 days  6 hours 24 minutes 10.2 seconds.
 File lengths (MBytes):  RWF=   1886 Int=      0 D2E=      0 Chk=     92 Scr=      1
 Normal termination of Gaussian 16 at Mon Jan 31 21:12:44 2022.
