 Entering Gaussian System, Link 0=/lustre1/prg/gaussian/bin/G16_C01_Linda_AVX2/g16/g16
 Initial command:
 /lustre1/prg/gaussian/bin/G16_C01_Linda_AVX2/g16/l1.exe "/lustre1/prg/webmo/data/webmo20/toliste/4364/scratch/Gau-1750035.inp" -scrdir="/lustre1/prg/webmo/data/webmo20/toliste/4364/scratch/"
 Default is to use a total of  32 processors:
                               32 via shared-memory
                                1 via Linda
 Entering Link 1 = /lustre1/prg/gaussian/bin/G16_C01_Linda_AVX2/g16/l1.exe PID=   1750036.
  
 Copyright (c) 1988-2019, Gaussian, Inc.  All Rights Reserved.
  
 This is part of the Gaussian(R) 16 program.  It is based on
 the Gaussian(R) 09 system (copyright 2009, Gaussian, Inc.),
 the Gaussian(R) 03 system (copyright 2003, Gaussian, Inc.),
 the Gaussian(R) 98 system (copyright 1998, Gaussian, Inc.),
 the Gaussian(R) 94 system (copyright 1995, Gaussian, Inc.),
 the Gaussian 92(TM) system (copyright 1992, Gaussian, Inc.),
 the Gaussian 90(TM) system (copyright 1990, Gaussian, Inc.),
 the Gaussian 88(TM) system (copyright 1988, Gaussian, Inc.),
 the Gaussian 86(TM) system (copyright 1986, Carnegie Mellon
 University), and the Gaussian 82(TM) system (copyright 1983,
 Carnegie Mellon University). Gaussian is a federally registered
 trademark of Gaussian, Inc.
  
 This software contains proprietary and confidential information,
 including trade secrets, belonging to Gaussian, Inc.
  
 This software is provided under written license and may be
 used, copied, transmitted, or stored only in accord with that
 written license.
  
 The following legend is applicable only to US Government
 contracts under FAR:
  
                    RESTRICTED RIGHTS LEGEND
  
 Use, reproduction and disclosure by the US Government is
 subject to restrictions as set forth in subparagraphs (a)
 and (c) of the Commercial Computer Software - Restricted
 Rights clause in FAR 52.227-19.
  
 Gaussian, Inc.
 340 Quinnipiac St., Bldg. 40, Wallingford CT 06492
  
  
 ---------------------------------------------------------------
 Warning -- This program may not be used in any manner that
 competes with the business of Gaussian, Inc. or will provide
 assistance to any competitor of Gaussian, Inc.  The licensee
 of this program is prohibited from giving any competitor of
 Gaussian, Inc. access to this program.  By using this program,
 the user acknowledges that Gaussian, Inc. is engaged in the
 business of creating and licensing software in the field of
 computational chemistry and represents and warrants to the
 licensee that it is not a competitor of Gaussian, Inc. and that
 it will not use this program in any manner prohibited above.
 ---------------------------------------------------------------
  

 Cite this work as:
 Gaussian 16, Revision C.01,
 M. J. Frisch, G. W. Trucks, H. B. Schlegel, G. E. Scuseria, 
 M. A. Robb, J. R. Cheeseman, G. Scalmani, V. Barone, 
 G. A. Petersson, H. Nakatsuji, X. Li, M. Caricato, A. V. Marenich, 
 J. Bloino, B. G. Janesko, R. Gomperts, B. Mennucci, H. P. Hratchian, 
 J. V. Ortiz, A. F. Izmaylov, J. L. Sonnenberg, D. Williams-Young, 
 F. Ding, F. Lipparini, F. Egidi, J. Goings, B. Peng, A. Petrone, 
 T. Henderson, D. Ranasinghe, V. G. Zakrzewski, J. Gao, N. Rega, 
 G. Zheng, W. Liang, M. Hada, M. Ehara, K. Toyota, R. Fukuda, 
 J. Hasegawa, M. Ishida, T. Nakajima, Y. Honda, O. Kitao, H. Nakai, 
 T. Vreven, K. Throssell, J. A. Montgomery, Jr., J. E. Peralta, 
 F. Ogliaro, M. J. Bearpark, J. J. Heyd, E. N. Brothers, K. N. Kudin, 
 V. N. Staroverov, T. A. Keith, R. Kobayashi, J. Normand, 
 K. Raghavachari, A. P. Rendell, J. C. Burant, S. S. Iyengar, 
 J. Tomasi, M. Cossi, J. M. Millam, M. Klene, C. Adamo, R. Cammi, 
 J. W. Ochterski, R. L. Martin, K. Morokuma, O. Farkas, 
 J. B. Foresman, and D. J. Fox, Gaussian, Inc., Wallingford CT, 2019.
 
 ******************************************
 Gaussian 16:  ES64L-G16RevC.01  3-Jul-2019
                31-Jan-2022 
 ******************************************
 %LindaWorkers=fizika343,fizika344
 %chk=bodipy.chk
 SetLPE:  input flags=" -opt "Tsnet.Node.lindarsharg: ssh" "
 SetLPE:    new flags=" -opt "Tsnet.Node.lindarsharg: ssh" -opt 'Tsnet.Node.lindarsharg: ssh'  -nodelist 'fizika343.fizika.bullx fizika344.fizika.bullx' -env GAUSS_MDEF=49660559360 -env GAUSS_EXEDIR="/lustre1/prg/gaussian/bin/G16_C01_Linda_AVX2/g16/bsd:/lustre1/prg/gaussian/bin/G16_C01_Linda_AVX2/g16/private:/lustre1/prg/gaussian/bin/G16_C01_Linda_AVX2/g16""
 Will use up to    2 processors via Linda.
 ----------------------------------------------------------------------
 #p m062x cc-pvdz scrf=(cpcm,solvent=n,n-DiMethylFormamide) td=(nstate=
 6,root=1) opt=tight nosymm density=all int=ultrafine fchk
 ----------------------------------------------------------------------
 1/7=10,18=20,19=15,26=6,38=1/1,3;
 2/9=110,12=2,15=1,17=6,18=5,40=1/2;
 3/5=16,11=9,25=1,30=1,70=2101,71=1,72=148,74=-55,75=-5/1,2,3,8;
 4//1;
 5/5=2,38=5,53=148/2;
 8/6=1,10=1,107=1,108=6/1;
 9/8=1,15=2,30=10,41=6,42=1,70=2/14;
 10/5=4,28=1,31=1/2;
 6/7=2,8=2,9=2,10=2,22=-2/1;
 7/12=6,13=5,14=1,30=1/1,2,3,16;
 1/7=10,18=20,19=15,26=6/3(2);
 2/9=110,15=1/2;
 99//99;
 2/9=110,15=1/2;
 3/5=16,11=9,25=1,30=1,70=2105,71=1,72=148,74=-55,75=-5/1,2,3,8;
 4/5=5,16=3,69=1/1;
 5/5=2,38=5,53=148/2;
 8/6=1,10=1,107=1,108=6/1;
 9/8=1,15=2,30=10,41=6,42=1,49=4,70=2/14;
 10/5=4,28=1,31=1/2;
 7/12=6,13=5,14=1,30=1/1,2,3,16;
 1/7=10,18=20,19=15,26=6/3(-8);
 2/9=110,15=1/2;
 6/7=2,8=2,9=2,10=2,22=-2/1;
 99/9=10/99;
 Leave Link    1 at Mon Jan 31 13:49:24 2022, MaxMem=           0 cpu:               2.3 elap:               0.1
 (Enter /lustre1/prg/gaussian/bin/G16_C01_Linda_AVX2/g16/l101.exe)
 -----------------------------------
 BDP-phenyl, optimized S1 in toluene
 -----------------------------------
 Symbolic Z-matrix:
 Charge =  0 Multiplicity = 1
 B                    -0.02231  -0.31808   0.01333 
 N                    -0.00171  -0.08569   1.54179 
 C                     1.0918    0.04446   2.29711 
 H                     2.08119   0.03819   1.84491 
 C                     0.7197    0.18272   3.66194 
 H                     1.40889   0.30959   4.49193 
 C                    -0.66741   0.14007   3.71363 
 H                    -1.30494   0.25247   4.58505 
 C                    -1.12869  -0.02985   2.37723 
 C                    -2.45225  -0.04016   1.84905 
 N                    -1.46798   0.04399  -0.40749 
 C                    -1.88279   0.18662  -1.66883 
 H                    -1.16857   0.19057  -2.48945 
 C                    -3.29967   0.28411  -1.70166 
 H                    -3.90248   0.3967   -2.59829 
 C                    -3.74698   0.19189  -0.39007 
 H                    -4.77383   0.20989  -0.04061 
 C                    -2.59401   0.05427   0.43543 
 F                     0.89563   0.51262  -0.61981 
 F                     0.24685  -1.65443  -0.28466 
 C                    -3.61113  -0.05792   2.75119 
 C                    -3.65983  -0.9701    3.82109 
 H                    -2.84201  -1.68028   3.95478 
 C                    -4.75117  -0.99431   4.68413 
 H                    -4.77664  -1.71742   5.50007 
 C                    -5.81224  -0.10577   4.50205 
 C                    -5.77179   0.80971   3.44993 
 H                    -6.58902   1.51803   3.30947 
 C                    -4.68401   0.83511   2.58143 
 H                    -4.64371   1.57825   1.78411 
 H                    -6.66629  -0.12526   5.17963 
 
 ITRead=  0  0  0  0  0  0  0  0  0  0  0  0  0  0  0  0  0  0  0  0
 ITRead=  0  0  0  0  0  0  0  0  0  0  0
 MicOpt= -1 -1 -1 -1 -1 -1 -1 -1 -1 -1 -1 -1 -1 -1 -1 -1 -1 -1 -1 -1
 MicOpt= -1 -1 -1 -1 -1 -1 -1 -1 -1 -1 -1
 NAtoms=     31 NQM=       31 NQMF=       0 NMMI=      0 NMMIF=      0
                NMic=       0 NMicF=      0.
                    Isotopes and Nuclear Properties:
 (Nuclear quadrupole moments (NQMom) in fm**2, nuclear magnetic moments (NMagM)
  in nuclear magnetons)

  Atom         1           2           3           4           5           6           7           8           9          10
 IAtWgt=          11          14          12           1          12           1          12           1          12          12
 AtmWgt=  11.0093053  14.0030740  12.0000000   1.0078250  12.0000000   1.0078250  12.0000000   1.0078250  12.0000000  12.0000000
 NucSpn=           3           2           0           1           0           1           0           1           0           0
 AtZEff=  -0.0000000  -0.0000000  -0.0000000  -0.0000000  -0.0000000  -0.0000000  -0.0000000  -0.0000000  -0.0000000  -0.0000000
 NQMom=    4.0590000   2.0440000   0.0000000   0.0000000   0.0000000   0.0000000   0.0000000   0.0000000   0.0000000   0.0000000
 NMagM=    2.6886370   0.4037610   0.0000000   2.7928460   0.0000000   2.7928460   0.0000000   2.7928460   0.0000000   0.0000000
 AtZNuc=   5.0000000   7.0000000   6.0000000   1.0000000   6.0000000   1.0000000   6.0000000   1.0000000   6.0000000   6.0000000

  Atom        11          12          13          14          15          16          17          18          19          20
 IAtWgt=          14          12           1          12           1          12           1          12          19          19
 AtmWgt=  14.0030740  12.0000000   1.0078250  12.0000000   1.0078250  12.0000000   1.0078250  12.0000000  18.9984032  18.9984032
 NucSpn=           2           0           1           0           1           0           1           0           1           1
 AtZEff=  -0.0000000  -0.0000000  -0.0000000  -0.0000000  -0.0000000  -0.0000000  -0.0000000  -0.0000000  -0.0000000  -0.0000000
 NQMom=    2.0440000   0.0000000   0.0000000   0.0000000   0.0000000   0.0000000   0.0000000   0.0000000   0.0000000   0.0000000
 NMagM=    0.4037610   0.0000000   2.7928460   0.0000000   2.7928460   0.0000000   2.7928460   0.0000000   2.6288670   2.6288670
 AtZNuc=   7.0000000   6.0000000   1.0000000   6.0000000   1.0000000   6.0000000   1.0000000   6.0000000   9.0000000   9.0000000

  Atom        21          22          23          24          25          26          27          28          29          30
 IAtWgt=          12          12           1          12           1          12          12           1          12           1
 AtmWgt=  12.0000000  12.0000000   1.0078250  12.0000000   1.0078250  12.0000000  12.0000000   1.0078250  12.0000000   1.0078250
 NucSpn=           0           0           1           0           1           0           0           1           0           1
 AtZEff=  -0.0000000  -0.0000000  -0.0000000  -0.0000000  -0.0000000  -0.0000000  -0.0000000  -0.0000000  -0.0000000  -0.0000000
 NQMom=    0.0000000   0.0000000   0.0000000   0.0000000   0.0000000   0.0000000   0.0000000   0.0000000   0.0000000   0.0000000
 NMagM=    0.0000000   0.0000000   2.7928460   0.0000000   2.7928460   0.0000000   0.0000000   2.7928460   0.0000000   2.7928460
 AtZNuc=   6.0000000   6.0000000   1.0000000   6.0000000   1.0000000   6.0000000   6.0000000   1.0000000   6.0000000   1.0000000

  Atom        31
 IAtWgt=           1
 AtmWgt=   1.0078250
 NucSpn=           1
 AtZEff=  -0.0000000
 NQMom=    0.0000000
 NMagM=    2.7928460
 AtZNuc=   1.0000000
 Leave Link  101 at Mon Jan 31 13:49:25 2022, MaxMem= 49660559360 cpu:              26.1 elap:               0.8
 (Enter /lustre1/prg/gaussian/bin/G16_C01_Linda_AVX2/g16/l103.exe)

 GradGradGradGradGradGradGradGradGradGradGradGradGradGradGradGradGradGrad
 Berny optimization.
 Initialization pass.
                           ----------------------------
                           !    Initial Parameters    !
                           ! (Angstroms and Degrees)  !
 --------------------------                            --------------------------
 ! Name  Definition              Value          Derivative Info.                !
 --------------------------------------------------------------------------------
 ! R1    R(1,2)                  1.5462         estimate D2E/DX2                !
 ! R2    R(1,11)                 1.5486         estimate D2E/DX2                !
 ! R3    R(1,19)                 1.3905         estimate D2E/DX2                !
 ! R4    R(1,20)                 1.3954         estimate D2E/DX2                !
 ! R5    R(2,3)                  1.3354         estimate D2E/DX2                !
 ! R6    R(2,9)                  1.404          estimate D2E/DX2                !
 ! R7    R(3,4)                  1.0878         estimate D2E/DX2                !
 ! R8    R(3,5)                  1.4214         estimate D2E/DX2                !
 ! R9    R(5,6)                  1.0863         estimate D2E/DX2                !
 ! R10   R(5,7)                  1.3887         estimate D2E/DX2                !
 ! R11   R(7,8)                  1.0856         estimate D2E/DX2                !
 ! R12   R(7,9)                  1.4239         estimate D2E/DX2                !
 ! R13   R(9,10)                 1.4251         estimate D2E/DX2                !
 ! R14   R(10,18)                1.4238         estimate D2E/DX2                !
 ! R15   R(10,21)                1.4687         estimate D2E/DX2                !
 ! R16   R(11,12)                1.3354         estimate D2E/DX2                !
 ! R17   R(11,18)                1.4066         estimate D2E/DX2                !
 ! R18   R(12,13)                1.0879         estimate D2E/DX2                !
 ! R19   R(12,14)                1.4206         estimate D2E/DX2                !
 ! R20   R(14,15)                1.0863         estimate D2E/DX2                !
 ! R21   R(14,16)                1.3888         estimate D2E/DX2                !
 ! R22   R(16,17)                1.0848         estimate D2E/DX2                !
 ! R23   R(16,18)                1.4247         estimate D2E/DX2                !
 ! R24   R(21,22)                1.4068         estimate D2E/DX2                !
 ! R25   R(21,29)                1.4062         estimate D2E/DX2                !
 ! R26   R(22,23)                1.0914         estimate D2E/DX2                !
 ! R27   R(22,24)                1.3916         estimate D2E/DX2                !
 ! R28   R(24,25)                1.0905         estimate D2E/DX2                !
 ! R29   R(24,26)                1.3959         estimate D2E/DX2                !
 ! R30   R(26,27)                1.3952         estimate D2E/DX2                !
 ! R31   R(26,31)                1.0904         estimate D2E/DX2                !
 ! R32   R(27,28)                1.0906         estimate D2E/DX2                !
 ! R33   R(27,29)                1.3922         estimate D2E/DX2                !
 ! R34   R(29,30)                1.0907         estimate D2E/DX2                !
 ! A1    A(2,1,11)             104.2368         estimate D2E/DX2                !
 ! A2    A(2,1,19)             110.5806         estimate D2E/DX2                !
 ! A3    A(2,1,20)             110.6387         estimate D2E/DX2                !
 ! A4    A(11,1,19)            110.6626         estimate D2E/DX2                !
 ! A5    A(11,1,20)            110.2405         estimate D2E/DX2                !
 ! A6    A(19,1,20)            110.3381         estimate D2E/DX2                !
 ! A7    A(1,2,3)              125.7825         estimate D2E/DX2                !
 ! A8    A(1,2,9)              125.6983         estimate D2E/DX2                !
 ! A9    A(3,2,9)              108.4737         estimate D2E/DX2                !
 ! A10   A(2,3,4)              120.603          estimate D2E/DX2                !
 ! A11   A(2,3,5)              109.7685         estimate D2E/DX2                !
 ! A12   A(4,3,5)              129.6279         estimate D2E/DX2                !
 ! A13   A(3,5,6)              125.3761         estimate D2E/DX2                !
 ! A14   A(3,5,7)              107.1121         estimate D2E/DX2                !
 ! A15   A(6,5,7)              127.5076         estimate D2E/DX2                !
 ! A16   A(5,7,8)              127.8286         estimate D2E/DX2                !
 ! A17   A(5,7,9)              106.9958         estimate D2E/DX2                !
 ! A18   A(8,7,9)              125.1335         estimate D2E/DX2                !
 ! A19   A(2,9,7)              107.6485         estimate D2E/DX2                !
 ! A20   A(2,9,10)             121.6466         estimate D2E/DX2                !
 ! A21   A(7,9,10)             130.5098         estimate D2E/DX2                !
 ! A22   A(9,10,18)            117.3846         estimate D2E/DX2                !
 ! A23   A(9,10,21)            120.3479         estimate D2E/DX2                !
 ! A24   A(18,10,21)           122.145          estimate D2E/DX2                !
 ! A25   A(1,11,12)            124.8623         estimate D2E/DX2                !
 ! A26   A(1,11,18)            125.8873         estimate D2E/DX2                !
 ! A27   A(12,11,18)           108.4552         estimate D2E/DX2                !
 ! A28   A(11,12,13)           120.5923         estimate D2E/DX2                !
 ! A29   A(11,12,14)           109.8136         estimate D2E/DX2                !
 ! A30   A(13,12,14)           129.5759         estimate D2E/DX2                !
 ! A31   A(12,14,15)           125.4268         estimate D2E/DX2                !
 ! A32   A(12,14,16)           107.1483         estimate D2E/DX2                !
 ! A33   A(15,14,16)           127.4206         estimate D2E/DX2                !
 ! A34   A(14,16,17)           127.4429         estimate D2E/DX2                !
 ! A35   A(14,16,18)           107.0354         estimate D2E/DX2                !
 ! A36   A(17,16,18)           125.5195         estimate D2E/DX2                !
 ! A37   A(10,18,11)           120.9814         estimate D2E/DX2                !
 ! A38   A(10,18,16)           131.4712         estimate D2E/DX2                !
 ! A39   A(11,18,16)           107.5381         estimate D2E/DX2                !
 ! A40   A(10,21,22)           120.1513         estimate D2E/DX2                !
 ! A41   A(10,21,29)           121.3444         estimate D2E/DX2                !
 ! A42   A(22,21,29)           118.5007         estimate D2E/DX2                !
 ! A43   A(21,22,23)           119.2851         estimate D2E/DX2                !
 ! A44   A(21,22,24)           120.6703         estimate D2E/DX2                !
 ! A45   A(23,22,24)           120.0261         estimate D2E/DX2                !
 ! A46   A(22,24,25)           119.5953         estimate D2E/DX2                !
 ! A47   A(22,24,26)           120.2761         estimate D2E/DX2                !
 ! A48   A(25,24,26)           120.1269         estimate D2E/DX2                !
 ! A49   A(24,26,27)           119.6026         estimate D2E/DX2                !
 ! A50   A(24,26,31)           120.1958         estimate D2E/DX2                !
 ! A51   A(27,26,31)           120.2014         estimate D2E/DX2                !
 ! A52   A(26,27,28)           120.1034         estimate D2E/DX2                !
 ! A53   A(26,27,29)           120.3347         estimate D2E/DX2                !
 ! A54   A(28,27,29)           119.5586         estimate D2E/DX2                !
 ! A55   A(21,29,27)           120.6133         estimate D2E/DX2                !
 ! A56   A(21,29,30)           119.5221         estimate D2E/DX2                !
 ! A57   A(27,29,30)           119.8244         estimate D2E/DX2                !
 ! D1    D(11,1,2,3)          -162.9026         estimate D2E/DX2                !
 ! D2    D(11,1,2,9)            19.8349         estimate D2E/DX2                !
 ! D3    D(19,1,2,3)           -43.9469         estimate D2E/DX2                !
 ! D4    D(19,1,2,9)           138.7906         estimate D2E/DX2                !
 ! D5    D(20,1,2,3)            78.6102         estimate D2E/DX2                !
 ! D6    D(20,1,2,9)           -98.6524         estimate D2E/DX2                !
 ! D7    D(2,1,11,12)          169.1902         estimate D2E/DX2                !
 ! D8    D(2,1,11,18)          -22.2185         estimate D2E/DX2                !
 ! D9    D(19,1,11,12)          50.2904         estimate D2E/DX2                !
 ! D10   D(19,1,11,18)        -141.1183         estimate D2E/DX2                !
 ! D11   D(20,1,11,12)         -72.0506         estimate D2E/DX2                !
 ! D12   D(20,1,11,18)          96.5407         estimate D2E/DX2                !
 ! D13   D(1,2,3,4)              2.9299         estimate D2E/DX2                !
 ! D14   D(1,2,3,5)           -177.3007         estimate D2E/DX2                !
 ! D15   D(9,2,3,4)           -179.4137         estimate D2E/DX2                !
 ! D16   D(9,2,3,5)              0.3557         estimate D2E/DX2                !
 ! D17   D(1,2,9,7)            177.4582         estimate D2E/DX2                !
 ! D18   D(1,2,9,10)            -7.1168         estimate D2E/DX2                !
 ! D19   D(3,2,9,7)             -0.2006         estimate D2E/DX2                !
 ! D20   D(3,2,9,10)           175.2243         estimate D2E/DX2                !
 ! D21   D(2,3,5,6)           -179.6786         estimate D2E/DX2                !
 ! D22   D(2,3,5,7)             -0.3767         estimate D2E/DX2                !
 ! D23   D(4,3,5,6)              0.0637         estimate D2E/DX2                !
 ! D24   D(4,3,5,7)            179.3656         estimate D2E/DX2                !
 ! D25   D(3,5,7,8)           -177.4725         estimate D2E/DX2                !
 ! D26   D(3,5,7,9)              0.2402         estimate D2E/DX2                !
 ! D27   D(6,5,7,8)              1.81           estimate D2E/DX2                !
 ! D28   D(6,5,7,9)            179.5227         estimate D2E/DX2                !
 ! D29   D(5,7,9,2)             -0.034          estimate D2E/DX2                !
 ! D30   D(5,7,9,10)          -174.9099         estimate D2E/DX2                !
 ! D31   D(8,7,9,2)            177.757          estimate D2E/DX2                !
 ! D32   D(8,7,9,10)             2.881          estimate D2E/DX2                !
 ! D33   D(2,9,10,18)           -7.4332         estimate D2E/DX2                !
 ! D34   D(2,9,10,21)          176.5061         estimate D2E/DX2                !
 ! D35   D(7,9,10,18)          166.8291         estimate D2E/DX2                !
 ! D36   D(7,9,10,21)           -9.2316         estimate D2E/DX2                !
 ! D37   D(9,10,18,11)           5.2187         estimate D2E/DX2                !
 ! D38   D(9,10,18,16)        -173.518          estimate D2E/DX2                !
 ! D39   D(21,10,18,11)       -178.7964         estimate D2E/DX2                !
 ! D40   D(21,10,18,16)          2.4669         estimate D2E/DX2                !
 ! D41   D(9,10,21,22)         -48.0529         estimate D2E/DX2                !
 ! D42   D(9,10,21,29)         131.2477         estimate D2E/DX2                !
 ! D43   D(18,10,21,22)        136.0786         estimate D2E/DX2                !
 ! D44   D(18,10,21,29)        -44.6208         estimate D2E/DX2                !
 ! D45   D(1,11,12,13)          -8.8275         estimate D2E/DX2                !
 ! D46   D(1,11,12,14)         169.7613         estimate D2E/DX2                !
 ! D47   D(18,11,12,13)       -179.101          estimate D2E/DX2                !
 ! D48   D(18,11,12,14)         -0.5122         estimate D2E/DX2                !
 ! D49   D(1,11,18,10)          11.7687         estimate D2E/DX2                !
 ! D50   D(1,11,18,16)        -169.224          estimate D2E/DX2                !
 ! D51   D(12,11,18,10)       -178.0834         estimate D2E/DX2                !
 ! D52   D(12,11,18,16)          0.9239         estimate D2E/DX2                !
 ! D53   D(11,12,14,15)       -179.3992         estimate D2E/DX2                !
 ! D54   D(11,12,14,16)         -0.1077         estimate D2E/DX2                !
 ! D55   D(13,12,14,15)         -0.9753         estimate D2E/DX2                !
 ! D56   D(13,12,14,16)        178.3163         estimate D2E/DX2                !
 ! D57   D(12,14,16,17)       -178.815          estimate D2E/DX2                !
 ! D58   D(12,14,16,18)          0.6698         estimate D2E/DX2                !
 ! D59   D(15,14,16,17)          0.4581         estimate D2E/DX2                !
 ! D60   D(15,14,16,18)        179.9429         estimate D2E/DX2                !
 ! D61   D(14,16,18,10)        177.8861         estimate D2E/DX2                !
 ! D62   D(14,16,18,11)         -0.9781         estimate D2E/DX2                !
 ! D63   D(17,16,18,10)         -2.6165         estimate D2E/DX2                !
 ! D64   D(17,16,18,11)        178.5194         estimate D2E/DX2                !
 ! D65   D(10,21,22,23)         -1.7071         estimate D2E/DX2                !
 ! D66   D(10,21,22,24)        179.8587         estimate D2E/DX2                !
 ! D67   D(29,21,22,23)        178.9726         estimate D2E/DX2                !
 ! D68   D(29,21,22,24)          0.5384         estimate D2E/DX2                !
 ! D69   D(10,21,29,27)       -179.6554         estimate D2E/DX2                !
 ! D70   D(10,21,29,30)         -1.9676         estimate D2E/DX2                !
 ! D71   D(22,21,29,27)         -0.3436         estimate D2E/DX2                !
 ! D72   D(22,21,29,30)        177.3442         estimate D2E/DX2                !
 ! D73   D(21,22,24,25)        179.2105         estimate D2E/DX2                !
 ! D74   D(21,22,24,26)         -0.3177         estimate D2E/DX2                !
 ! D75   D(23,22,24,25)          0.7878         estimate D2E/DX2                !
 ! D76   D(23,22,24,26)       -178.7403         estimate D2E/DX2                !
 ! D77   D(22,24,26,27)         -0.1076         estimate D2E/DX2                !
 ! D78   D(22,24,26,31)       -179.9429         estimate D2E/DX2                !
 ! D79   D(25,24,26,27)       -179.6332         estimate D2E/DX2                !
 ! D80   D(25,24,26,31)          0.5314         estimate D2E/DX2                !
 ! D81   D(24,26,27,28)       -179.042          estimate D2E/DX2                !
 ! D82   D(24,26,27,29)          0.302          estimate D2E/DX2                !
 ! D83   D(31,26,27,28)          0.7933         estimate D2E/DX2                !
 ! D84   D(31,26,27,29)       -179.8627         estimate D2E/DX2                !
 ! D85   D(26,27,29,21)         -0.0728         estimate D2E/DX2                !
 ! D86   D(26,27,29,30)       -177.7536         estimate D2E/DX2                !
 ! D87   D(28,27,29,21)        179.2748         estimate D2E/DX2                !
 ! D88   D(28,27,29,30)          1.594          estimate D2E/DX2                !
 --------------------------------------------------------------------------------
 Trust Radius=3.00D-01 FncErr=5.00D-06 GrdErr=5.00D-06 EigMax=2.50D+02 EigMin=1.00D-04
 Number of steps in this run=    186 maximum allowed number of steps=    186.
 GradGradGradGradGradGradGradGradGradGradGradGradGradGradGradGradGradGrad

 Leave Link  103 at Mon Jan 31 13:49:25 2022, MaxMem= 49660559360 cpu:               0.6 elap:               0.0
 (Enter /lustre1/prg/gaussian/bin/G16_C01_Linda_AVX2/g16/l202.exe)
                          Input orientation:                          
 ---------------------------------------------------------------------
 Center     Atomic      Atomic             Coordinates (Angstroms)
 Number     Number       Type             X           Y           Z
 ---------------------------------------------------------------------
      1          5           0       -0.022314   -0.318076    0.013326
      2          7           0       -0.001707   -0.085693    1.541792
      3          6           0        1.091803    0.044455    2.297107
      4          1           0        2.081188    0.038188    1.844910
      5          6           0        0.719696    0.182717    3.661938
      6          1           0        1.408889    0.309587    4.491930
      7          6           0       -0.667405    0.140073    3.713632
      8          1           0       -1.304943    0.252470    4.585053
      9          6           0       -1.128691   -0.029848    2.377234
     10          6           0       -2.452248   -0.040163    1.849047
     11          7           0       -1.467979    0.043992   -0.407485
     12          6           0       -1.882790    0.186621   -1.668830
     13          1           0       -1.168572    0.190570   -2.489452
     14          6           0       -3.299670    0.284113   -1.701663
     15          1           0       -3.902475    0.396698   -2.598289
     16          6           0       -3.746979    0.191894   -0.390067
     17          1           0       -4.773831    0.209893   -0.040610
     18          6           0       -2.594010    0.054270    0.435426
     19          9           0        0.895627    0.512622   -0.619808
     20          9           0        0.246848   -1.654425   -0.284657
     21          6           0       -3.611125   -0.057918    2.751186
     22          6           0       -3.659829   -0.970100    3.821089
     23          1           0       -2.842011   -1.680278    3.954782
     24          6           0       -4.751175   -0.994310    4.684132
     25          1           0       -4.776635   -1.717415    5.500070
     26          6           0       -5.812242   -0.105768    4.502054
     27          6           0       -5.771788    0.809705    3.449932
     28          1           0       -6.589016    1.518026    3.309473
     29          6           0       -4.684012    0.835107    2.581429
     30          1           0       -4.643713    1.578247    1.784107
     31          1           0       -6.666295   -0.125256    5.179633
 ---------------------------------------------------------------------
                    Distance matrix (angstroms):
                    1          2          3          4          5
     1  B    0.000000
     2  N    1.546168   0.000000
     3  C    2.566776   1.335366   0.000000
     4  H    2.811822   2.108478   1.087844   0.000000
     5  C    3.756826   2.255545   1.421388   2.275113   0.000000
     6  H    4.743437   3.293834   2.233402   2.744514   1.086264
     7  C    3.783954   2.282764   2.260641   3.325247   1.388719
     8  H    4.782400   3.327794   3.319994   4.361214   2.226246
     9  C    2.625873   1.403985   2.223181   3.254431   2.261014
    10  C    3.058053   2.470148   3.573264   4.534115   3.660257
    11  N    1.548587   2.442632   3.723883   4.203558   4.622269
    12  C    2.558464   3.731048   4.959543   5.299200   5.932119
    13  H    2.799380   4.205808   5.295450   5.419488   6.434689
    14  C    3.747650   4.640400   5.944126   6.449209   6.703268
    15  H    4.731499   5.708674   7.002270   7.461553   7.784645
    16  C    3.780995   4.223292   5.536827   6.243899   6.030756
    17  H    4.781064   5.036322   6.316483   7.111677   6.624835
    18  C    2.632571   2.821998   4.129306   4.883071   4.626827
    19  F    1.390516   2.415720   2.960753   2.775874   4.298039
    20  F    1.395375   2.420458   3.204005   3.280975   4.378846
    21  C    4.521407   3.806744   4.725907   5.764807   4.432086
    22  C    5.306195   4.399912   5.092136   6.154771   4.531507
    23  H    5.034020   4.053708   4.604072   5.625173   4.030169
    24  C    6.681006   5.766917   6.396664   7.470503   5.688647
    25  H    7.393651   6.413300   6.913879   7.966936   6.099089
    26  C    7.329190   6.521186   7.249151   8.329908   6.592058
    27  C    6.792540   6.143010   7.001678   8.052364   6.525138
    28  H    7.573469   7.006372   7.886145   8.916687   7.438048
    29  C    5.445770   4.883922   5.836609   6.851677   5.549160
    30  H    5.299909   4.937168   5.959180   6.899259   5.851488
    31  H    8.418455   7.592904   8.278034   9.362988   7.546596
                    6          7          8          9         10
     6  H    0.000000
     7  C    2.223843   0.000000
     8  H    2.716030   1.085570   0.000000
     9  C    3.320613   1.423944   2.232764   0.000000
    10  C    4.692071   2.587436   2.981220   1.425093   0.000000
    11  N    5.687810   4.199257   4.999548   2.806284   2.463291
    12  C    6.986074   5.518172   6.280867   4.121427   3.570878
    13  H    7.442927   6.223501   7.076090   4.871838   4.530302
    14  C    7.780217   6.022872   6.595660   4.631320   3.664808
    15  H    8.859423   7.097315   7.639920   5.712412   4.698170
    16  C    7.101459   5.130965   5.542475   3.816092   2.596885
    17  H    7.666804   5.564346   5.782020   4.380695   3.003844
    18  C    5.704701   3.803394   4.349756   2.434102   1.423846
    19  F    5.141452   4.621749   5.656922   3.657102   4.196318
    20  F    5.293719   4.476874   5.455124   3.408375   3.800481
    21  C    5.325954   3.103384   2.962749   2.510599   1.468729
    22  C    5.270629   3.193530   2.761124   3.061936   2.492385
    23  H    4.724219   2.846180   2.548595   2.854478   2.697408
    24  C    6.299482   4.348088   3.666169   4.401631   3.772687
    25  H    6.586789   4.850504   4.095162   5.089939   4.641758
    26  C    7.233074   5.210700   4.522275   5.143566   4.281625
    27  C    7.273101   5.154869   4.642382   4.838789   3.782123
    28  H    8.174657   6.093240   5.581233   5.751533   4.655496
    29  C    6.406998   4.230613   3.971408   3.664717   2.506641
    30  H    6.750985   4.647842   4.555257   3.910646   2.725066
    31  H    8.116072   6.181120   5.407430   6.207061   5.371986
                   11         12         13         14         15
    11  N    0.000000
    12  C    1.335441   0.000000
    13  H    2.108487   1.087908   0.000000
    14  C    2.255581   1.420610   2.273970   0.000000
    15  H    3.294054   2.233194   2.743822   1.086272   0.000000
    16  C    2.283861   2.260633   3.324997   1.388839   2.223144
    17  H    3.330282   3.318096   4.358336   2.222106   2.708483
    18  C    1.406610   2.225139   3.256588   2.262285   3.321561
    19  F    2.418952   2.987696   2.803605   4.338565   5.191301
    20  F    2.416679   3.136996   3.204456   4.282946   5.174638
    21  C    3.818463   4.752208   5.787236   4.476813   5.376657
    22  C    4.869643   5.885158   6.883055   5.674818   6.567757
    23  H    4.887785   6.002535   6.915824   6.005302   6.955656
    24  C    6.146707   7.069820   8.105510   6.672302   7.462496
    25  H    6.996354   7.961961   8.971677   7.619219   8.415287
    26  C    6.557333   7.321605   8.398371   6.704560   7.369841
    27  C    5.829987   6.458658   7.539841   5.738166   6.343964
    28  H    6.497197   6.978875   8.048036   6.119953   6.586086
    29  C    4.461204   5.131479   6.203836   4.534851   5.256661
    30  H    4.152385   4.634878   5.680278   3.953711   4.599009
    31  H    7.633284   8.359464   9.441375   7.671635   8.270865
                   16         17         18         19         20
    16  C    0.000000
    17  H    1.084836   0.000000
    18  C    1.424681   2.236615   0.000000
    19  F    4.659339   5.707002   3.674394   0.000000
    20  F    4.401211   5.361199   3.392438   2.286774   0.000000
    21  C    3.154098   3.036072   2.531769   5.656848   5.162280
    22  C    4.369400   4.188807   3.694322   6.532397   5.708553
    23  H    4.816815   4.823674   3.931416   6.301240   5.245432
    24  C    5.306881   4.875839   4.878974   7.892338   7.078478
    25  H    6.276891   5.866316   5.792524   8.637160   7.661750
    26  C    5.318530   4.670518   5.188458   8.462351   7.875501
    27  C    4.384876   3.679616   4.444795   7.816998   7.499538
    28  H    4.849989   4.028544   5.134472   8.512929   8.349326
    29  C    3.181437   2.697044   3.095665   6.440830   6.222990
    30  H    2.730044   2.284495   2.888378   6.131774   6.216715
    31  H    6.296392   5.562794   6.254857   9.551077   8.943622
                   21         22         23         24         25
    21  C    0.000000
    22  C    1.406819   0.000000
    23  H    2.161535   1.091354   0.000000
    24  C    2.431630   1.391569   2.155785   0.000000
    25  H    3.415949   2.150514   2.476301   1.090543   0.000000
    26  C    2.812960   2.417367   3.406004   1.395895   2.160075
    27  C    2.430942   2.786725   3.877948   2.412337   3.402900
    28  H    3.415131   3.877197   4.968462   3.402819   4.307147
    29  C    1.406200   2.417536   3.406791   2.787945   3.878455
    30  H    2.162988   3.407550   4.309982   3.878111   4.968645
    31  H    3.903326   3.405619   4.306217   2.160662   2.491679
                   26         27         28         29         30
    26  C    0.000000
    27  C    1.395238   0.000000
    28  H    2.159244   1.090554   0.000000
    29  C    2.418047   1.392192   2.150690   0.000000
    30  H    3.404204   2.153644   2.472766   1.090689   0.000000
    31  H    1.090367   2.160130   2.490752   3.406231   4.303761
                   31
    31  H    0.000000
 Symmetry turned off by external request.
 Stoichiometry    C15H11BF2N2
 Framework group  C1[X(C15H11BF2N2)]
 Deg. of freedom    87
 Full point group                 C1      NOp   1
 Rotational constants (GHZ):           0.5797333           0.2799164           0.2047989
 Leave Link  202 at Mon Jan 31 13:49:25 2022, MaxMem= 49660559360 cpu:               0.4 elap:               0.0
 (Enter /lustre1/prg/gaussian/bin/G16_C01_Linda_AVX2/g16/l301.exe)
 Standard basis: CC-pVDZ (5D, 7F)
 Ernie: Thresh=  0.10000D-02 Tol=  0.10000D-05 Strict=F.
 Ernie:  40 primitive shells out of 495 were deleted.
   335 basis functions,   737 primitive gaussians,   355 cartesian basis functions
    69 alpha electrons       69 beta electrons
       nuclear repulsion energy      1466.6538474170 Hartrees.
 IExCor= 4336 DFT=T Ex+Corr=M062X ExCW=0 ScaHFX=  0.540000
 ScaDFX=  1.000000  1.000000  1.000000  1.000000 ScalE2=  1.000000  1.000000
 IRadAn=      5 IRanWt=     -1 IRanGd=            0 ICorTp=0 IEmpDi=  4
 NAtoms=   31 NActive=   31 NUniq=   31 SFac= 1.00D+00 NAtFMM=   60 NAOKFM=F Big=F
 Integral buffers will be    131072 words long.
 Regular integral format.
 Two-electron integral symmetry is turned off.
 ------------------------------------------------------------------------------
 Polarizable Continuum Model (PCM)
 =================================
 Model                : C-PCM.
 Atomic radii         : UFF (Universal Force Field).
 Polarization charges : Total charges.
 Charge compensation  : None.
 Solution method      : On-the-fly selection.
 Cavity type          : Scaled VdW (van der Waals Surface) (Alpha=1.100).
 Cavity algorithm     : GePol (No added spheres)
                        Default sphere list used, NSphG=   31.
                        Lebedev-Laikov grids with approx.  5.0 points / Ang**2.
                        Smoothing algorithm: York/Karplus (Gamma=1.0000).
                        Polarization charges: spherical gaussians, with
                                              point-specific exponents (IZeta= 3).
                        Self-potential: point-specific (ISelfS= 7).
                        Self-field    : sphere-specific E.n sum rule (ISelfD= 2).
 1st derivatives      : Analytical E(r).r(x)/FMM algorithm (CHGder, D1EAlg=3).
                        Cavity 1st derivative terms included.
 Solvent              : n,n-DiMethylFormamide, Eps=  37.219000 Eps(inf)=   2.046330
 ------------------------------------------------------------------------------
 GePol: Number of generator spheres                  =      31
 GePol: Total number of spheres                      =      31
 GePol: Number of exposed spheres                    =      31 (100.00%)
 GePol: Number of points                             =    2470
 GePol: Average weight of points                     =       0.13
 GePol: Minimum weight of points                     =   0.30D-11
 GePol: Maximum weight of points                     =    0.20577
 GePol: Number of points with low weight             =     159
 GePol: Fraction of low-weight points (<1% of avg)   =       6.44%
 GePol: Cavity surface area                          =    314.156 Ang**2
 GePol: Cavity volume                                =    345.847 Ang**3
 Leave Link  301 at Mon Jan 31 13:49:25 2022, MaxMem= 49660559360 cpu:               3.3 elap:               0.1
Warning: Permanently added 'fizika344.fizika.bullx' (ECDSA) to the list of known hosts.
 (Enter /lustre1/prg/gaussian/bin/G16_C01_Linda_AVX2/g16/linda-exe/l302.exel)
 NPDir=0 NMtPBC=     1 NCelOv=     1 NCel=       1 NClECP=     1 NCelD=      1
         NCelK=      1 NCelE2=     1 NClLst=     1 CellRange=     0.0.
 One-electron integrals computed using PRISM.
 NBasis=   335 RedAO= T EigKep=  2.82D-04  NBF=   335
 NBsUse=   335 1.00D-06 EigRej= -1.00D+00 NBFU=   335
 Precomputing XC quadrature grid using
 IXCGrd= 4 IRadAn=           5 IRanWt=          -1 IRanGd=           0 AccXCQ= 0.00D+00.
 Generated NRdTot=       0 NPtTot=           0 NUsed=           0 NTot=          32
 NSgBfM=   354   354   354   354   354 MxSgAt=    31 MxSgA2=    31.
 Leave Link  302 at Mon Jan 31 13:49:27 2022, MaxMem= 49660559360 cpu:              19.8 elap:               0.6
 (Enter /lustre1/prg/gaussian/bin/G16_C01_Linda_AVX2/g16/l303.exe)
 DipDrv:  MaxL=1.
 Leave Link  303 at Mon Jan 31 13:49:27 2022, MaxMem= 49660559360 cpu:               3.1 elap:               0.1
 (Enter /lustre1/prg/gaussian/bin/G16_C01_Linda_AVX2/g16/l308.exe)
 Leave Link  308 at Mon Jan 31 13:49:27 2022, MaxMem= 49660559360 cpu:               3.5 elap:               0.1
 (Enter /lustre1/prg/gaussian/bin/G16_C01_Linda_AVX2/g16/linda-exe/l401.exel)
 ExpMin= 9.54D-02 ExpMax= 1.47D+04 ExpMxC= 5.03D+02 IAcc=3 IRadAn=         5 AccDes= 0.00D+00
 Harris functional with IExCor= 1009 and IRadAn=       5 diagonalized for initial guess.
 HarFok:  IExCor= 1009 AccDes= 0.00D+00 IRadAn=         5 IDoV= 1 UseB2=F ITyADJ=14
 ICtDFT=  3500011 ScaDFX=  1.000000  1.000000  1.000000  1.000000
 FoFCou: FMM=F IPFlag=           0 FMFlag=      100000 FMFlg1=           0
         NFxFlg=           0 DoJE=T BraDBF=F KetDBF=T FulRan=T
         wScrn=  0.000000 ICntrl=       500 IOpCl=  0 I1Cent=   200000004 NGrid=           0
         NMat0=    1 NMatS0=      1 NMatT0=    0 NMatD0=    1 NMtDS0=    0 NMtDT0=    0
 Symmetry not used in FoFCou.
 Harris En= -911.573640148926    
 JPrj=0 DoOrth=F DoCkMO=F.
 Leave Link  401 at Mon Jan 31 13:49:29 2022, MaxMem= 49660559360 cpu:              40.5 elap:               1.3
 (Enter /lustre1/prg/gaussian/bin/G16_C01_Linda_AVX2/g16/linda-exe/l502.exel)
 Two-electron integral symmetry not used.
 Closed shell SCF:
 Using DIIS extrapolation, IDIIS=  1040.
 NGot= 49660559360 LenX= 49660292335 LenY= 49660165869
 Requested convergence on RMS density matrix=1.00D-08 within 128 cycles.
 Requested convergence on MAX density matrix=1.00D-06.
 Requested convergence on             energy=1.00D-06.
 No special actions if energy rises.
 Fock matrices will be formed incrementally for  20 cycles.

 Cycle   1  Pass 1  IDiag  1:
 FoFJK:  IHMeth= 1 ICntrl=       0 DoSepK=F KAlg= 0 I1Cent=           0 FoldK=F
 IRaf= 870000000 NMat=       1 IRICut=       1 DoRegI=T DoRafI=F ISym2E= 0 IDoP0=0 IntGTp=1.
 FoFCou: FMM=F IPFlag=           0 FMFlag=      100000 FMFlg1=           0
         NFxFlg=           0 DoJE=F BraDBF=F KetDBF=F FulRan=T
         wScrn=  0.000000 ICntrl=         0 IOpCl=  0 I1Cent=           0 NGrid=           0
         NMat0=    1 NMatS0=      1 NMatT0=    0 NMatD0=    1 NMtDS0=    0 NMtDT0=    0
 Symmetry not used in FoFCou.
 Inv3:  Mode=1 IEnd=    18302700.
 Iteration    1 A*A^-1 deviation from unit magnitude is 3.11D-15 for    882.
 Iteration    1 A*A^-1 deviation from orthogonality  is 1.67D-15 for   2402    253.
 Iteration    1 A^-1*A deviation from unit magnitude is 2.89D-15 for    882.
 Iteration    1 A^-1*A deviation from orthogonality  is 2.47D-15 for   1635    998.
 E= -911.878201829750    
 DIIS: error= 2.00D-02 at cycle   1 NSaved=   1.
 NSaved= 1 IEnMin= 1 EnMin= -911.878201829750     IErMin= 1 ErrMin= 2.00D-02
 ErrMax= 2.00D-02  0.00D+00 EMaxC= 1.00D-01 BMatC= 3.29D-01 BMatP= 3.29D-01
 IDIUse=3 WtCom= 8.00D-01 WtEn= 2.00D-01
 Coeff-Com:  0.100D+01
 Coeff-En:   0.100D+01
 Coeff:      0.100D+01
 Gap=     0.174 Goal=   None    Shift=    0.000
 GapD=    0.174 DampG=1.000 DampE=0.500 DampFc=0.5000 IDamp=-1.
 Damping current iteration by 5.00D-01
 RMSDP=3.53D-03 MaxDP=9.83D-02              OVMax= 1.49D-01

 Cycle   2  Pass 1  IDiag  1:
 RMSU=  1.70D-03    CP:  9.75D-01
 E= -912.036406832588     Delta-E=       -0.158205002838 Rises=F Damp=T
 DIIS: error= 5.94D-03 at cycle   2 NSaved=   2.
 NSaved= 2 IEnMin= 2 EnMin= -912.036406832588     IErMin= 2 ErrMin= 5.94D-03
 ErrMax= 5.94D-03  0.00D+00 EMaxC= 1.00D-01 BMatC= 2.86D-02 BMatP= 3.29D-01
 IDIUse=3 WtCom= 9.41D-01 WtEn= 5.94D-02
 Coeff-Com: -0.101D+00 0.110D+01
 Coeff-En:   0.000D+00 0.100D+01
 Coeff:     -0.951D-01 0.110D+01
 Gap=     0.183 Goal=   None    Shift=    0.000
 RMSDP=1.23D-03 MaxDP=5.62D-02 DE=-1.58D-01 OVMax= 9.13D-02

 Cycle   3  Pass 1  IDiag  1:
 RMSU=  1.00D-03    CP:  9.56D-01  1.36D+00
 E= -912.178363563738     Delta-E=       -0.141956731150 Rises=F Damp=F
 DIIS: error= 5.05D-03 at cycle   3 NSaved=   3.
 NSaved= 3 IEnMin= 3 EnMin= -912.178363563738     IErMin= 3 ErrMin= 5.05D-03
 ErrMax= 5.05D-03  0.00D+00 EMaxC= 1.00D-01 BMatC= 1.33D-02 BMatP= 2.86D-02
 IDIUse=3 WtCom= 9.50D-01 WtEn= 5.05D-02
 Coeff-Com: -0.110D+00 0.468D+00 0.641D+00
 Coeff-En:   0.000D+00 0.000D+00 0.100D+01
 Coeff:     -0.104D+00 0.445D+00 0.659D+00
 Gap=     0.173 Goal=   None    Shift=    0.000
 RMSDP=4.38D-04 MaxDP=2.10D-02 DE=-1.42D-01 OVMax= 4.56D-02

 Cycle   4  Pass 1  IDiag  1:
 RMSU=  3.16D-04    CP:  9.58D-01  1.40D+00  7.08D-01
 E= -912.188922147960     Delta-E=       -0.010558584222 Rises=F Damp=F
 DIIS: error= 2.96D-03 at cycle   4 NSaved=   4.
 NSaved= 4 IEnMin= 4 EnMin= -912.188922147960     IErMin= 4 ErrMin= 2.96D-03
 ErrMax= 2.96D-03  0.00D+00 EMaxC= 1.00D-01 BMatC= 2.48D-03 BMatP= 1.33D-02
 IDIUse=3 WtCom= 9.70D-01 WtEn= 2.96D-02
 Coeff-Com: -0.362D-01 0.956D-01 0.341D+00 0.600D+00
 Coeff-En:   0.000D+00 0.000D+00 0.146D+00 0.854D+00
 Coeff:     -0.351D-01 0.928D-01 0.335D+00 0.608D+00
 Gap=     0.175 Goal=   None    Shift=    0.000
 RMSDP=1.49D-04 MaxDP=7.85D-03 DE=-1.06D-02 OVMax= 1.82D-02

 Cycle   5  Pass 1  IDiag  1:
 RMSU=  6.38D-05    CP:  9.57D-01  1.40D+00  7.90D-01  6.65D-01
 E= -912.191365995610     Delta-E=       -0.002443847650 Rises=F Damp=F
 DIIS: error= 3.06D-04 at cycle   5 NSaved=   5.
 NSaved= 5 IEnMin= 5 EnMin= -912.191365995610     IErMin= 5 ErrMin= 3.06D-04
 ErrMax= 3.06D-04  0.00D+00 EMaxC= 1.00D-01 BMatC= 8.69D-05 BMatP= 2.48D-03
 IDIUse=3 WtCom= 9.97D-01 WtEn= 3.06D-03
 Coeff-Com: -0.835D-02 0.130D-01 0.100D+00 0.252D+00 0.643D+00
 Coeff-En:   0.000D+00 0.000D+00 0.000D+00 0.000D+00 0.100D+01
 Coeff:     -0.833D-02 0.130D-01 0.100D+00 0.251D+00 0.644D+00
 Gap=     0.175 Goal=   None    Shift=    0.000
 RMSDP=2.74D-05 MaxDP=1.79D-03 DE=-2.44D-03 OVMax= 2.86D-03

 Cycle   6  Pass 1  IDiag  1:
 RMSU=  1.84D-05    CP:  9.57D-01  1.41D+00  7.94D-01  6.99D-01  7.54D-01
 E= -912.191444497706     Delta-E=       -0.000078502096 Rises=F Damp=F
 DIIS: error= 6.71D-05 at cycle   6 NSaved=   6.
 NSaved= 6 IEnMin= 6 EnMin= -912.191444497706     IErMin= 6 ErrMin= 6.71D-05
 ErrMax= 6.71D-05  0.00D+00 EMaxC= 1.00D-01 BMatC= 4.79D-06 BMatP= 8.69D-05
 IDIUse=1 WtCom= 1.00D+00 WtEn= 0.00D+00
 Coeff-Com: -0.132D-02-0.676D-05 0.194D-01 0.626D-01 0.251D+00 0.668D+00
 Coeff:     -0.132D-02-0.676D-05 0.194D-01 0.626D-01 0.251D+00 0.668D+00
 Gap=     0.175 Goal=   None    Shift=    0.000
 RMSDP=6.93D-06 MaxDP=2.91D-04 DE=-7.85D-05 OVMax= 5.48D-04

 Cycle   7  Pass 1  IDiag  1:
 RMSU=  5.83D-06    CP:  9.57D-01  1.41D+00  7.94D-01  7.01D-01  8.00D-01
                    CP:  8.89D-01
 E= -912.191449186348     Delta-E=       -0.000004688642 Rises=F Damp=F
 DIIS: error= 2.71D-05 at cycle   7 NSaved=   7.
 NSaved= 7 IEnMin= 7 EnMin= -912.191449186348     IErMin= 7 ErrMin= 2.71D-05
 ErrMax= 2.71D-05  0.00D+00 EMaxC= 1.00D-01 BMatC= 2.93D-07 BMatP= 4.79D-06
 IDIUse=1 WtCom= 1.00D+00 WtEn= 0.00D+00
 Coeff-Com:  0.515D-03-0.144D-02-0.520D-02-0.882D-02 0.499D-02 0.155D+00
 Coeff-Com:  0.855D+00
 Coeff:      0.515D-03-0.144D-02-0.520D-02-0.882D-02 0.499D-02 0.155D+00
 Coeff:      0.855D+00
 Gap=     0.175 Goal=   None    Shift=    0.000
 RMSDP=3.15D-06 MaxDP=1.18D-04 DE=-4.69D-06 OVMax= 4.25D-04

 Cycle   8  Pass 1  IDiag  1:
 RMSU=  2.19D-06    CP:  9.57D-01  1.41D+00  7.94D-01  7.04D-01  8.09D-01
                    CP:  9.89D-01  1.02D+00
 E= -912.191449536700     Delta-E=       -0.000000350352 Rises=F Damp=F
 DIIS: error= 2.38D-05 at cycle   8 NSaved=   8.
 NSaved= 8 IEnMin= 8 EnMin= -912.191449536700     IErMin= 8 ErrMin= 2.38D-05
 ErrMax= 2.38D-05  0.00D+00 EMaxC= 1.00D-01 BMatC= 1.41D-07 BMatP= 2.93D-07
 IDIUse=1 WtCom= 1.00D+00 WtEn= 0.00D+00
 Coeff-Com:  0.479D-03-0.801D-03-0.547D-02-0.134D-01-0.319D-01-0.168D-01
 Coeff-Com:  0.471D+00 0.597D+00
 Coeff:      0.479D-03-0.801D-03-0.547D-02-0.134D-01-0.319D-01-0.168D-01
 Coeff:      0.471D+00 0.597D+00
 Gap=     0.175 Goal=   None    Shift=    0.000
 RMSDP=1.31D-06 MaxDP=7.84D-05 DE=-3.50D-07 OVMax= 1.57D-04

 Cycle   9  Pass 1  IDiag  1:
 RMSU=  7.70D-07    CP:  9.57D-01  1.41D+00  7.95D-01  7.04D-01  8.17D-01
                    CP:  1.00D+00  1.11D+00  6.96D-01
 E= -912.191449695167     Delta-E=       -0.000000158467 Rises=F Damp=F
 DIIS: error= 2.35D-06 at cycle   9 NSaved=   9.
 NSaved= 9 IEnMin= 9 EnMin= -912.191449695167     IErMin= 9 ErrMin= 2.35D-06
 ErrMax= 2.35D-06  0.00D+00 EMaxC= 1.00D-01 BMatC= 4.20D-09 BMatP= 1.41D-07
 IDIUse=1 WtCom= 1.00D+00 WtEn= 0.00D+00
 Coeff-Com:  0.980D-04-0.114D-03-0.115D-02-0.315D-02-0.957D-02-0.180D-01
 Coeff-Com:  0.724D-01 0.175D+00 0.785D+00
 Coeff:      0.980D-04-0.114D-03-0.115D-02-0.315D-02-0.957D-02-0.180D-01
 Coeff:      0.724D-01 0.175D+00 0.785D+00
 Gap=     0.175 Goal=   None    Shift=    0.000
 RMSDP=3.35D-07 MaxDP=1.21D-05 DE=-1.58D-07 OVMax= 3.76D-05

 Cycle  10  Pass 1  IDiag  1:
 RMSU=  2.30D-07    CP:  9.57D-01  1.41D+00  7.95D-01  7.04D-01  8.17D-01
                    CP:  1.01D+00  1.13D+00  7.71D-01  9.69D-01
 E= -912.191449701350     Delta-E=       -0.000000006183 Rises=F Damp=F
 DIIS: error= 1.25D-06 at cycle  10 NSaved=  10.
 NSaved=10 IEnMin=10 EnMin= -912.191449701350     IErMin=10 ErrMin= 1.25D-06
 ErrMax= 1.25D-06  0.00D+00 EMaxC= 1.00D-01 BMatC= 8.68D-10 BMatP= 4.20D-09
 IDIUse=1 WtCom= 1.00D+00 WtEn= 0.00D+00
 Coeff-Com: -0.181D-04 0.492D-04 0.194D-03 0.373D-03-0.738D-04-0.585D-02
 Coeff-Com: -0.287D-01-0.103D-01 0.311D+00 0.733D+00
 Coeff:     -0.181D-04 0.492D-04 0.194D-03 0.373D-03-0.738D-04-0.585D-02
 Coeff:     -0.287D-01-0.103D-01 0.311D+00 0.733D+00
 Gap=     0.175 Goal=   None    Shift=    0.000
 RMSDP=1.26D-07 MaxDP=6.04D-06 DE=-6.18D-09 OVMax= 1.52D-05

 Cycle  11  Pass 1  IDiag  1:
 RMSU=  8.42D-08    CP:  9.57D-01  1.41D+00  7.95D-01  7.04D-01  8.17D-01
                    CP:  1.01D+00  1.13D+00  7.86D-01  1.06D+00  9.23D-01
 E= -912.191449702450     Delta-E=       -0.000000001100 Rises=F Damp=F
 DIIS: error= 3.75D-07 at cycle  11 NSaved=  11.
 NSaved=11 IEnMin=11 EnMin= -912.191449702450     IErMin=11 ErrMin= 3.75D-07
 ErrMax= 3.75D-07  0.00D+00 EMaxC= 1.00D-01 BMatC= 1.03D-10 BMatP= 8.68D-10
 IDIUse=1 WtCom= 1.00D+00 WtEn= 0.00D+00
 Coeff-Com: -0.216D-04 0.367D-04 0.241D-03 0.615D-03 0.132D-02 0.322D-04
 Coeff-Com: -0.220D-01-0.320D-01 0.249D-01 0.298D+00 0.729D+00
 Coeff:     -0.216D-04 0.367D-04 0.241D-03 0.615D-03 0.132D-02 0.322D-04
 Coeff:     -0.220D-01-0.320D-01 0.249D-01 0.298D+00 0.729D+00
 Gap=     0.175 Goal=   None    Shift=    0.000
 RMSDP=4.58D-08 MaxDP=1.67D-06 DE=-1.10D-09 OVMax= 4.63D-06

 Cycle  12  Pass 1  IDiag  1:
 RMSU=  2.72D-08    CP:  9.57D-01  1.41D+00  7.95D-01  7.04D-01  8.17D-01
                    CP:  1.01D+00  1.14D+00  7.87D-01  1.09D+00  1.02D+00
                    CP:  9.08D-01
 E= -912.191449702573     Delta-E=       -0.000000000124 Rises=F Damp=F
 DIIS: error= 7.89D-08 at cycle  12 NSaved=  12.
 NSaved=12 IEnMin=12 EnMin= -912.191449702573     IErMin=12 ErrMin= 7.89D-08
 ErrMax= 7.89D-08  0.00D+00 EMaxC= 1.00D-01 BMatC= 3.89D-12 BMatP= 1.03D-10
 IDIUse=1 WtCom= 1.00D+00 WtEn= 0.00D+00
 Coeff-Com: -0.418D-05 0.622D-05 0.447D-04 0.124D-03 0.311D-03 0.362D-03
 Coeff-Com: -0.290D-02-0.737D-02-0.836D-02 0.302D-01 0.174D+00 0.813D+00
 Coeff:     -0.418D-05 0.622D-05 0.447D-04 0.124D-03 0.311D-03 0.362D-03
 Coeff:     -0.290D-02-0.737D-02-0.836D-02 0.302D-01 0.174D+00 0.813D+00
 Gap=     0.175 Goal=   None    Shift=    0.000
 RMSDP=1.07D-08 MaxDP=3.69D-07 DE=-1.24D-10 OVMax= 1.62D-06

 Cycle  13  Pass 1  IDiag  1:
 RMSU=  8.24D-09    CP:  9.57D-01  1.41D+00  7.95D-01  7.04D-01  8.17D-01
                    CP:  1.01D+00  1.14D+00  7.87D-01  1.10D+00  1.04D+00
                    CP:  9.67D-01  1.04D+00
 E= -912.191449702594     Delta-E=       -0.000000000020 Rises=F Damp=F
 DIIS: error= 3.76D-08 at cycle  13 NSaved=  13.
 NSaved=13 IEnMin=13 EnMin= -912.191449702594     IErMin=13 ErrMin= 3.76D-08
 ErrMax= 3.76D-08  0.00D+00 EMaxC= 1.00D-01 BMatC= 9.72D-13 BMatP= 3.89D-12
 IDIUse=1 WtCom= 1.00D+00 WtEn= 0.00D+00
 Coeff-Com:  0.659D-06-0.146D-05-0.883D-05-0.181D-04-0.159D-04 0.142D-03
 Coeff-Com:  0.124D-02 0.655D-04-0.652D-02-0.246D-01-0.220D-01 0.322D+00
 Coeff-Com:  0.730D+00
 Coeff:      0.659D-06-0.146D-05-0.883D-05-0.181D-04-0.159D-04 0.142D-03
 Coeff:      0.124D-02 0.655D-04-0.652D-02-0.246D-01-0.220D-01 0.322D+00
 Coeff:      0.730D+00
 Gap=     0.175 Goal=   None    Shift=    0.000
 RMSDP=4.76D-09 MaxDP=1.36D-07 DE=-2.02D-11 OVMax= 5.86D-07

 Error on total polarization charges =  0.01111
 SCF Done:  E(RM062X) =  -912.191449703     A.U. after   13 cycles
            NFock= 13  Conv=0.48D-08     -V/T= 2.0063
 KE= 9.064630213902D+02 PE=-5.063165101628D+03 EE= 1.777856783119D+03
 Leave Link  502 at Mon Jan 31 13:50:10 2022, MaxMem= 49660559360 cpu:            1221.3 elap:              39.3
 (Enter /lustre1/prg/gaussian/bin/G16_C01_Linda_AVX2/g16/l801.exe)
 DoSCS=F DFT=T ScalE2(SS,OS)=  1.000000  1.000000
 ExpMin= 9.54D-02 ExpMax= 1.47D+04 ExpMxC= 5.03D+02 IAcc=3 IRadAn=         5 AccDes= 0.00D+00
 HarFok:  IExCor=  205 AccDes= 0.00D+00 IRadAn=         5 IDoV=-2 UseB2=F ITyADJ=14
 ICtDFT= 12500011 ScaDFX=  1.000000  1.000000  1.000000  1.000000
 Largest valence mixing into a core orbital is  7.98D-05
 Largest core mixing into a valence orbital is  4.85D-05
 Range of M.O.s used for correlation:    21   335
 NBasis=   335 NAE=    69 NBE=    69 NFC=    20 NFV=     0
 NROrb=    315 NOA=    49 NOB=    49 NVA=   266 NVB=   266

 **** Warning!!: The largest alpha MO coefficient is  0.12692249D+02

 Leave Link  801 at Mon Jan 31 13:50:10 2022, MaxMem= 49660559360 cpu:               3.4 elap:               0.1
 (Enter /lustre1/prg/gaussian/bin/G16_C01_Linda_AVX2/g16/linda-exe/l914.exel)
 RHF ground state
 Keep R1, R2, and R3 ints in memory in canonical form, NReq=5189770173.
 FoFCou: FMM=F IPFlag=           0 FMFlag=           0 FMFlg1=           0
         NFxFlg=           0 DoJE=F BraDBF=F KetDBF=F FulRan=T
         wScrn=  0.000000 ICntrl=       600 IOpCl=  0 I1Cent=           0 NGrid=           0
         NMat0=    1 NMatS0=  56280 NMatT0=    0 NMatD0=    1 NMtDS0=    0 NMtDT0=    0
 Symmetry not used in FoFCou.
 Two-electron integral symmetry not used.
 MDV= 49660559360 DFT=T DoStab=F Mixed=T DoRPA=T DoScal=F NonHer=T
 NEqPCM:  Using equilibrium solvation (IEInf=0, Eps=  37.2190, EpsInf=   2.0463)
 Making orbital integer symmetry assigments:
    24 initial guesses have been made.
 Convergence on wavefunction:    0.000001000000000
 Davidson Disk Diagonalization:  ConvIn= 1.00D-06 SkipCon=T Conv= 1.00D-06.
 Max sub-space:  2000 roots to seek:    24 dimension of matrix:        26068
 Iteration     1 Dimension    24 NMult     0 NNew     24
 CISAX will form    24 AO SS matrices at one time.
 NMat=    24 NSing=    24 JSym2X= 0.
 Excitation Energies [eV] at current iteration:
 Root      1 :     3.168992854868467
 Root      2 :     4.077951828741210
 Root      3 :     4.285342078760261
 Root      4 :     4.412476831509796
 Root      5 :     4.596430982891300
 Root      6 :     5.740543822348323
 Root      7 :     5.900649949015675
 Root      8 :     5.934294331707120
 Root      9 :     6.066946858248049
 Root     10 :     6.294223567491547
 Root     11 :     6.643186711255442
 Root     12 :     6.782313652104893
 Root     13 :     7.009138089895964
 Root     14 :     7.162446137863406
 Root     15 :     7.304059150288105
 Root     16 :     7.400390772756489
 Root     17 :     7.444798971397305
 Root     18 :     7.469770466951324
 Root     19 :     7.594670787267515
 Root     20 :     7.628597142199347
 Root     21 :     7.709548990420949
 Root     22 :     7.808937913012586
 Root     23 :     8.064720114955279
 Root     24 :     8.260343286963442
 Iteration     2 Dimension    36 NMult    24 NNew     12
 CISAX will form    12 AO SS matrices at one time.
 NMat=    12 NSing=    12 JSym2X= 0.
 Root      1 not converged, maximum delta is    0.053914733762775
 Root      2 not converged, maximum delta is    0.055359505720996
 Root      3 not converged, maximum delta is    0.196003697945474
 New state      4 was old state      5
 Root      4 not converged, maximum delta is    0.162066518903274
 New state      5 was old state      4
 Root      5 not converged, maximum delta is    0.181303387220513
 Root      6 not converged, maximum delta is    0.026865113889692
 Excitation Energies [eV] at current iteration:
 Root      1 :     2.638505791697063   Change is   -0.530487063171405
 Root      2 :     3.825242324316502   Change is   -0.252709504424708
 Root      3 :     3.928713558537298   Change is   -0.356628520222963
 Root      4 :     4.210050535557943   Change is   -0.386380447333357
 Root      5 :     4.302601952853615   Change is   -0.109874878656181
 Root      6 :     5.630961472147934   Change is   -0.109582350200388
 Iteration     3 Dimension    48 NMult    36 NNew     12
 CISAX will form    12 AO SS matrices at one time.
 NMat=    12 NSing=    12 JSym2X= 0.
 Root      1 not converged, maximum delta is    0.015823641124452
 Root      2 not converged, maximum delta is    0.012057934827231
 Root      3 not converged, maximum delta is    0.011462632908699
 Root      4 not converged, maximum delta is    0.011335268306206
 Root      5 not converged, maximum delta is    0.014350838010410
 Root      6 not converged, maximum delta is    0.014911964678953
 Excitation Energies [eV] at current iteration:
 Root      1 :     2.613229859025833   Change is   -0.025275932671230
 Root      2 :     3.810933303865995   Change is   -0.014309020450507
 Root      3 :     3.916555142754105   Change is   -0.012158415783193
 Root      4 :     4.198032776793589   Change is   -0.012017758764354
 Root      5 :     4.294604084433491   Change is   -0.007997868420124
 Root      6 :     5.623221356696907   Change is   -0.007740115451028
 Iteration     4 Dimension    60 NMult    48 NNew     12
 CISAX will form    12 AO SS matrices at one time.
 NMat=    12 NSing=    12 JSym2X= 0.
 Root      1 not converged, maximum delta is    0.002839582243748
 Root      2 not converged, maximum delta is    0.006592382365552
 Root      3 not converged, maximum delta is    0.002906955260176
 Root      4 not converged, maximum delta is    0.003217828885296
 Root      5 not converged, maximum delta is    0.002446156475522
 Root      6 not converged, maximum delta is    0.017410017202930
 Excitation Energies [eV] at current iteration:
 Root      1 :     2.612143836636941   Change is   -0.001086022388892
 Root      2 :     3.809488954793534   Change is   -0.001444349072461
 Root      3 :     3.915713011831583   Change is   -0.000842130922523
 Root      4 :     4.196401062044344   Change is   -0.001631714749245
 Root      5 :     4.293864701109438   Change is   -0.000739383324053
 Root      6 :     5.621587976376155   Change is   -0.001633380320752
 Iteration     5 Dimension    72 NMult    60 NNew     12
 CISAX will form    12 AO SS matrices at one time.
 NMat=    12 NSing=    12 JSym2X= 0.
 Root      1 not converged, maximum delta is    0.000372955821097
 Root      2 not converged, maximum delta is    0.000359630509633
 Root      3 not converged, maximum delta is    0.000380849799789
 Root      4 not converged, maximum delta is    0.001571446487883
 Root      5 not converged, maximum delta is    0.000301675632993
 Root      6 not converged, maximum delta is    0.175591246846813
 Excitation Energies [eV] at current iteration:
 Root      1 :     2.612108486479695   Change is   -0.000035350157246
 Root      2 :     3.809415982982517   Change is   -0.000072971811018
 Root      3 :     3.915668977193309   Change is   -0.000044034638274
 Root      4 :     4.196268055848826   Change is   -0.000133006195518
 Root      5 :     4.293839556764897   Change is   -0.000025144344540
 Root      6 :     5.619571471809554   Change is   -0.002016504566602
 Iteration     6 Dimension    84 NMult    72 NNew     12
 CISAX will form    12 AO SS matrices at one time.
 NMat=    12 NSing=    12 JSym2X= 0.
 Root      1 not converged, maximum delta is    0.000047744223261
 Root      2 not converged, maximum delta is    0.000186087351540
 Root      3 not converged, maximum delta is    0.000064127479522
 Root      4 not converged, maximum delta is    0.000202419969659
 Root      5 not converged, maximum delta is    0.000075428105739
 Root      6 not converged, maximum delta is    0.579817251371042
 Excitation Energies [eV] at current iteration:
 Root      1 :     2.612106805216037   Change is   -0.000001681263658
 Root      2 :     3.809410716319607   Change is   -0.000005266662909
 Root      3 :     3.915667231281491   Change is   -0.000001745911817
 Root      4 :     4.196255696955880   Change is   -0.000012358892946
 Root      5 :     4.293838190995670   Change is   -0.000001365769228
 Root      6 :     5.574329744883264   Change is   -0.045241726926289
 Iteration     7 Dimension    96 NMult    84 NNew     12
 CISAX will form    12 AO SS matrices at one time.
 NMat=    12 NSing=    12 JSym2X= 0.
 Root      1 not converged, maximum delta is    0.000007632559634
 Root      2 not converged, maximum delta is    0.000022740697180
 Root      3 not converged, maximum delta is    0.000014684852406
 Root      4 not converged, maximum delta is    0.000038663638666
 Root      5 not converged, maximum delta is    0.000029931136912
 Root      6 not converged, maximum delta is    0.029981346649823
 Excitation Energies [eV] at current iteration:
 Root      1 :     2.612106699233165   Change is   -0.000000105982873
 Root      2 :     3.809410435554141   Change is   -0.000000280765466
 Root      3 :     3.915667172929476   Change is   -0.000000058352016
 Root      4 :     4.196254920062191   Change is   -0.000000776893688
 Root      5 :     4.293838096204534   Change is   -0.000000094791136
 Root      6 :     5.566313702258679   Change is   -0.008016042624585
 Iteration     8 Dimension   108 NMult    96 NNew     12
 CISAX will form    12 AO SS matrices at one time.
 NMat=    12 NSing=    12 JSym2X= 0.
 Root      1 not converged, maximum delta is    0.000002048543354
 Root      2 not converged, maximum delta is    0.000004665472083
 Root      3 not converged, maximum delta is    0.000004567981850
 Root      4 not converged, maximum delta is    0.000007951840173
 Root      5 not converged, maximum delta is    0.000004069330573
 Root      6 not converged, maximum delta is    0.006983110893123
 Excitation Energies [eV] at current iteration:
 Root      1 :     2.612106694344126   Change is   -0.000000004889039
 Root      2 :     3.809410426139924   Change is   -0.000000009414218
 Root      3 :     3.915667168752156   Change is   -0.000000004177320
 Root      4 :     4.196254882672073   Change is   -0.000000037390119
 Root      5 :     4.293838091414072   Change is   -0.000000004790463
 Root      6 :     5.565512251005289   Change is   -0.000801451253389
 Iteration     9 Dimension   120 NMult   108 NNew     12
 CISAX will form    12 AO SS matrices at one time.
 NMat=    12 NSing=    12 JSym2X= 0.
 Root      1 has converged.
 Root      2 has converged.
 Root      3 has converged.
 Root      4 not converged, maximum delta is    0.000001915974717
 Root      5 has converged.
 Root      6 not converged, maximum delta is    0.000828323304464
 Excitation Energies [eV] at current iteration:
 Root      1 :     2.612106694189348   Change is   -0.000000000154778
 Root      2 :     3.809410425815466   Change is   -0.000000000324457
 Root      3 :     3.915667168560959   Change is   -0.000000000191197
 Root      4 :     4.196254881187216   Change is   -0.000000001484857
 Root      5 :     4.293838091227614   Change is   -0.000000000186457
 Root      6 :     5.565448467328941   Change is   -0.000063783676349
 Iteration    10 Dimension   124 NMult   120 NNew      4
 CISAX will form     4 AO SS matrices at one time.
 NMat=     4 NSing=     4 JSym2X= 0.
 Root      1 has converged.
 Root      2 has converged.
 Root      3 has converged.
 Root      4 has converged.
 Root      5 has converged.
 Root      6 not converged, maximum delta is    0.000267771967763
 Excitation Energies [eV] at current iteration:
 Root      1 :     2.612106694189127   Change is   -0.000000000000220
 Root      2 :     3.809410425814819   Change is   -0.000000000000647
 Root      3 :     3.915667168560203   Change is   -0.000000000000756
 Root      4 :     4.196254881128405   Change is   -0.000000000058811
 Root      5 :     4.293838091224359   Change is   -0.000000000003255
 Root      6 :     5.565442874769585   Change is   -0.000005592559356
 Iteration    11 Dimension   126 NMult   124 NNew      2
 CISAX will form     2 AO SS matrices at one time.
 NMat=     2 NSing=     2 JSym2X= 0.
 Root      1 has converged.
 Root      2 has converged.
 Root      3 has converged.
 Root      4 has converged.
 Root      5 has converged.
 Root      6 not converged, maximum delta is    0.000071180725138
 Excitation Energies [eV] at current iteration:
 Root      1 :     2.612106694189190   Change is    0.000000000000063
 Root      2 :     3.809410425814711   Change is   -0.000000000000108
 Root      3 :     3.915667168560203   Change is    0.000000000000000
 Root      4 :     4.196254881128130   Change is   -0.000000000000274
 Root      5 :     4.293838091224264   Change is   -0.000000000000095
 Root      6 :     5.565442410766087   Change is   -0.000000464003499
 Iteration    12 Dimension   128 NMult   126 NNew      2
 CISAX will form     2 AO SS matrices at one time.
 NMat=     2 NSing=     2 JSym2X= 0.
 Root      1 has converged.
 Root      2 has converged.
 Root      3 has converged.
 Root      4 has converged.
 Root      5 has converged.
 Root      6 not converged, maximum delta is    0.000017359826545
 Excitation Energies [eV] at current iteration:
 Root      1 :     2.612106694189001   Change is   -0.000000000000189
 Root      2 :     3.809410425814647   Change is   -0.000000000000064
 Root      3 :     3.915667168560203   Change is    0.000000000000000
 Root      4 :     4.196254881128052   Change is   -0.000000000000079
 Root      5 :     4.293838091224244   Change is   -0.000000000000020
 Root      6 :     5.565442373760963   Change is   -0.000000037005124
 Iteration    13 Dimension   130 NMult   128 NNew      2
 CISAX will form     2 AO SS matrices at one time.
 NMat=     2 NSing=     2 JSym2X= 0.
 Root      1 has converged.
 Root      2 has converged.
 Root      3 has converged.
 Root      4 has converged.
 Root      5 has converged.
 Root      6 not converged, maximum delta is    0.000004197854408
 Excitation Energies [eV] at current iteration:
 Root      1 :     2.612106694189001   Change is    0.000000000000000
 Root      2 :     3.809410425814625   Change is   -0.000000000000022
 Root      3 :     3.915667168560056   Change is   -0.000000000000147
 Root      4 :     4.196254881127993   Change is   -0.000000000000059
 Root      5 :     4.293838091224206   Change is   -0.000000000000038
 Root      6 :     5.565442371086100   Change is   -0.000000002674863
 Iteration    14 Dimension   132 NMult   130 NNew      2
 CISAX will form     2 AO SS matrices at one time.
 NMat=     2 NSing=     2 JSym2X= 0.
 Root      1 has converged.
 Root      2 has converged.
 Root      3 has converged.
 Root      4 has converged.
 Root      5 has converged.
 Root      6 not converged, maximum delta is    0.000001019629424
 Excitation Energies [eV] at current iteration:
 Root      1 :     2.612106694188939   Change is   -0.000000000000063
 Root      2 :     3.809410425814539   Change is   -0.000000000000086
 Root      3 :     3.915667168560056   Change is    0.000000000000000
 Root      4 :     4.196254881127993   Change is    0.000000000000000
 Root      5 :     4.293838091224226   Change is    0.000000000000019
 Root      6 :     5.565442370905552   Change is   -0.000000000180547
 Iteration    15 Dimension   134 NMult   132 NNew      2
 CISAX will form     2 AO SS matrices at one time.
 NMat=     2 NSing=     2 JSym2X= 0.
 Root      1 has converged.
 Root      2 has converged.
 Root      3 has converged.
 Root      4 has converged.
 Root      5 has converged.
 Root      6 has converged.
 Excitation Energies [eV] at current iteration:
 Root      1 :     2.612106694188876   Change is   -0.000000000000063
 Root      2 :     3.809410425814517   Change is   -0.000000000000022
 Root      3 :     3.915667168560035   Change is   -0.000000000000020
 Root      4 :     4.196254881127935   Change is   -0.000000000000058
 Root      5 :     4.293838091224186   Change is   -0.000000000000039
 Root      6 :     5.565442370891461   Change is   -0.000000000014092
 Convergence achieved on expansion vectors.
 ***********************************************************************
 Excited states from <AA,BB:AA,BB> singles matrix:
 ***********************************************************************
 
 1PDM for each excited state written to RWF  633
 Ground to excited state transition densities written to RWF  633
 Ground to excited state transition electric dipole moments (Au):
       state          X           Y           Z        Dip. S.      Osc.
         1         1.8828     -0.0636      2.5399     10.0000      0.6400
         2        -1.8323     -0.0985      1.5178      5.6709      0.5293
         3        -0.8226      0.0054     -0.7371      1.2200      0.1170
         4        -0.6047      0.0023      0.4379      0.5575      0.0573
         5         0.1217     -0.3186      0.0072      0.1164      0.0122
         6         0.8382      0.1080     -0.6626      1.1532      0.1572
 Ground to excited state transition velocity dipole moments (Au):
       state          X           Y           Z        Dip. S.      Osc.
         1        -0.1843      0.0070     -0.2487      0.0959      0.6658
         2         0.2574      0.0137     -0.2140      0.1122      0.5345
         3         0.1214     -0.0011      0.1100      0.0268      0.1243
         4         0.0954      0.0006     -0.0699      0.0140      0.0605
         5        -0.0224      0.0543     -0.0042      0.0035      0.0147
         6        -0.1712     -0.0213      0.1362      0.0483      0.1575
 Ground to excited state transition magnetic dipole moments (Au):
       state          X           Y           Z
         1        -0.0222     -2.3472     -0.0377
         2         0.0370      0.0826     -0.0632
         3        -0.0241     -0.4572      0.0758
         4        -0.1008     -0.1374     -0.1871
         5        -0.4396     -0.5816     -0.5531
         6         0.0219      0.0455      0.1332
 Ground to excited state transition velocity quadrupole moments (Au):
       state          XX          YY          ZZ          XY          XZ          YZ
         1         0.7029      0.0026     -0.7378     -0.0623      0.2186     -0.0660
         2        -2.5950     -0.0664     -1.2502     -0.0285      2.7789      0.0854
         3        -1.1198     -0.0052      0.7592      0.0478      0.0146      0.0237
         4        -0.5159      0.0027     -0.4049     -0.0546      0.2997      0.0338
         5         0.3476     -0.0146     -0.2956     -0.4272      0.0917      0.3509
         6         1.0273      0.0712      0.1444      0.0455     -1.6718     -0.0949
 <0|del|b> * <b|rxdel|0> + <0|del|b> * <b|delr+rdel|0>
 Rotatory Strengths (R) in cgs (10**-40 erg-esu-cm/Gauss)
       state          XX          YY          ZZ    R(velocity)    E-M Angle
         1        25.3050     37.3534    -84.8079     -7.3831       90.24
         2       -43.7416     98.3550     67.5451     40.7195       49.17
         3        34.6761      7.4355    -13.0698      9.6806       85.54
         4        38.1728      6.5863    -29.1966      5.1875       83.49
         5       -72.7283      5.6528    -19.8762    -28.9839      111.08
         6       -21.1437     42.2709     25.2842     15.4705       64.62
 1/2[<0|r|b>*<b|rxdel|0> + (<0|rxdel|b>*<b|r|0>)*]
 Rotatory Strengths (R) in cgs (10**-40 erg-esu-cm/Gauss)
       state          XX          YY          ZZ     R(length)
         1        29.5105   -105.6497     67.7642     -2.7916
         2        47.9305      5.7558     67.8530     40.5131
         3       -14.0401      1.7607     39.5271      9.0826
         4       -43.0928      0.2197     57.9336      5.0202
         5        37.8433   -131.0171      2.8033    -30.1235
         6       -12.9950     -3.4757     62.4128     15.3140
  1/2[<0|del|b>*<b|r|0> + (<0|r|b>*<b|del|0>)*] (Au)
       state          X           Y           Z        Dip. S.   Osc.(frdel)
         1        -0.3471     -0.0004     -0.6316      0.9791      0.6527
         2        -0.4716     -0.0014     -0.3249      0.7978      0.5319
         3        -0.0998     -0.0000     -0.0811      0.1809      0.1206
         4        -0.0577      0.0000     -0.0306      0.0883      0.0589
         5        -0.0027     -0.0173     -0.0000      0.0201      0.0134
         6        -0.1435     -0.0023     -0.0903      0.2360      0.1574

 Excitation energies and oscillator strengths:
 
 Excited state symmetry could not be determined.
 Excited State   1:      Singlet-?Sym    2.6121 eV  474.65 nm  f=0.6400  <S**2>=0.000
      69 -> 70         0.70051
 This state for optimization and/or second-order correction.
 Total Energy, E(TD-HF/TD-DFT) =  -912.095456548    
 Copying the excited state density for this state as the 1-particle RhoCI density.
 
 Excited state symmetry could not be determined.
 Excited State   2:      Singlet-?Sym    3.8094 eV  325.47 nm  f=0.5293  <S**2>=0.000
      68 -> 70         0.69775
 
 Excited state symmetry could not be determined.
 Excited State   3:      Singlet-?Sym    3.9157 eV  316.64 nm  f=0.1170  <S**2>=0.000
      66 -> 70         0.35818
      67 -> 70         0.60221
 
 Excited state symmetry could not be determined.
 Excited State   4:      Singlet-?Sym    4.1963 eV  295.46 nm  f=0.0573  <S**2>=0.000
      65 -> 70         0.67927
      66 -> 70         0.15558
 
 Excited state symmetry could not be determined.
 Excited State   5:      Singlet-?Sym    4.2938 eV  288.75 nm  f=0.0122  <S**2>=0.000
      65 -> 70        -0.17785
      66 -> 70         0.57700
      67 -> 70        -0.34200
 
 Excited state symmetry could not be determined.
 Excited State   6:      Singlet-?Sym    5.5654 eV  222.78 nm  f=0.1572  <S**2>=0.000
      63 -> 70         0.11921
      64 -> 70         0.66836
 SavETr:  write IOETrn=   770 NScale= 10 NData=  16 NLR=1 NState=    6 LETran=     118.
 The selected state is a singlet.
 CISGrd: IGrad=2 NXY=2 DFT=T
 CISAX will form     1 AO SS matrices at one time.
 NMat=     1 NSing=     1 JSym2X= 0.
 GePol: Maximum number of non-zero 1st derivatives   =     214
 Leave Link  914 at Mon Jan 31 13:54:47 2022, MaxMem= 49660559360 cpu:            7695.9 elap:             276.1
 (Enter /lustre1/prg/gaussian/bin/G16_C01_Linda_AVX2/g16/linda-exe/l1002.exel)
 Minotr:  Closed shell wavefunction.
          Computing CIS/TDA/TD derivatives.
          Using Z-Vector for PSCF gradient.
          Skipping F1 and S1 gradient terms here.
          IDoAtm=1111111111111111111111111111111
 NEqPCM:  Using equilibrium solvation (IEInf=0, Eps=  37.2190, EpsInf=   2.0463)
          Frozen-core window.
          Direct CPHF calculation.
          Differentiating once with respect to electric field.
                with respect to dipole field.
          Differentiating once with respect to nuclear coordinates.
          Requested convergence is 1.0D-10 RMS, and 1.0D-09 maximum.
          NewPWx=F KeepS1=T KeepF1=T KeepIn=T MapXYZ=F SortEE=F KeepMc=T.
 Keep R1 ints in memory in canonical form, NReq=1620843042.
 FoFCou: FMM=F IPFlag=           0 FMFlag=           0 FMFlg1=           0
         NFxFlg=           0 DoJE=F BraDBF=F KetDBF=F FulRan=T
         wScrn=  0.000000 ICntrl=       600 IOpCl=  0 I1Cent=           0 NGrid=           0
         NMat0=    1 NMatS0=  56280 NMatT0=    0 NMatD0=    1 NMtDS0=    0 NMtDT0=    0
 Symmetry not used in FoFCou.
 Two-electron integral symmetry not used.
          MDV=   49660559360 using IRadAn=       5.
          Solving linear equations separately, MaxMat=       0.
          There are     1 degrees of freedom in the 1st order CPHF.  IDoFFX=0 NUNeed=     1.
 LinEq1:  Iter=  0 NonCon=     1 RMS=4.22D-03 Max=3.05D-01 NDo=     1
 AX will form     1 AO Fock derivatives at one time.
 LinEq1:  Iter=  1 NonCon=     1 RMS=1.72D-03 Max=1.50D-01 NDo=     1
 LinEq1:  Iter=  2 NonCon=     1 RMS=1.09D-03 Max=5.45D-02 NDo=     1
 LinEq1:  Iter=  3 NonCon=     1 RMS=2.49D-04 Max=6.81D-03 NDo=     1
 LinEq1:  Iter=  4 NonCon=     1 RMS=1.60D-04 Max=7.13D-03 NDo=     1
 LinEq1:  Iter=  5 NonCon=     1 RMS=7.36D-05 Max=2.87D-03 NDo=     1
 LinEq1:  Iter=  6 NonCon=     1 RMS=3.77D-05 Max=1.90D-03 NDo=     1
 LinEq1:  Iter=  7 NonCon=     1 RMS=2.01D-05 Max=8.26D-04 NDo=     1
 LinEq1:  Iter=  8 NonCon=     1 RMS=8.90D-06 Max=2.69D-04 NDo=     1
 LinEq1:  Iter=  9 NonCon=     1 RMS=3.30D-06 Max=9.46D-05 NDo=     1
 LinEq1:  Iter= 10 NonCon=     1 RMS=1.68D-06 Max=7.06D-05 NDo=     1
 LinEq1:  Iter= 11 NonCon=     1 RMS=6.32D-07 Max=4.84D-05 NDo=     1
 LinEq1:  Iter= 12 NonCon=     1 RMS=2.41D-07 Max=1.34D-05 NDo=     1
 LinEq1:  Iter= 13 NonCon=     1 RMS=1.46D-07 Max=5.90D-06 NDo=     1
 LinEq1:  Iter= 14 NonCon=     1 RMS=4.66D-08 Max=1.17D-06 NDo=     1
 LinEq1:  Iter= 15 NonCon=     1 RMS=1.79D-08 Max=4.39D-07 NDo=     1
 LinEq1:  Iter= 16 NonCon=     1 RMS=9.21D-09 Max=2.82D-07 NDo=     1
 LinEq1:  Iter= 17 NonCon=     1 RMS=3.73D-09 Max=8.27D-08 NDo=     1
 LinEq1:  Iter= 18 NonCon=     1 RMS=1.94D-09 Max=6.21D-08 NDo=     1
 LinEq1:  Iter= 19 NonCon=     1 RMS=5.60D-10 Max=1.42D-08 NDo=     1
 LinEq1:  Iter= 20 NonCon=     1 RMS=2.78D-10 Max=7.77D-09 NDo=     1
 LinEq1:  Iter= 21 NonCon=     1 RMS=1.25D-10 Max=3.85D-09 NDo=     1
 LinEq1:  Iter= 22 NonCon=     1 RMS=6.02D-11 Max=2.16D-09 NDo=     1
 LinEq1:  Iter= 23 NonCon=     1 RMS=2.95D-11 Max=1.08D-09 NDo=     1
 LinEq1:  Iter= 24 NonCon=     0 RMS=9.00D-12 Max=3.91D-10 NDo=     1
 Linear equations converged to 1.000D-10 1.000D-09 after    24 iterations.
 End of Minotr F.D. properties file   721 does not exist.
 End of Minotr F.D. properties file   722 does not exist.
 End of Minotr F.D. properties file   788 does not exist.
 Leave Link 1002 at Mon Jan 31 13:57:44 2022, MaxMem= 49660559360 cpu:            2096.7 elap:             171.4
 (Enter /lustre1/prg/gaussian/bin/G16_C01_Linda_AVX2/g16/l601.exe)
 Copying SCF densities to generalized density rwf, IOpCl= 0 IROHF=0.

 **********************************************************************

            Population analysis using the SCF Density.

 **********************************************************************

 Alpha  occ. eigenvalues --  -25.21760 -25.21340 -14.80367 -14.80366 -10.62765
[...]
     1  B    3.398327   0.347083  -0.027720  -0.000236  -0.000329   0.000174
     2  N    0.347083   6.204782   0.483180  -0.025512  -0.054708   0.003758
     3  C   -0.027720   0.483180   4.783398   0.403870   0.467580  -0.040886
     4  H   -0.000236  -0.025512   0.403870   0.589997  -0.040101  -0.003522
     5  C   -0.000329  -0.054708   0.467580  -0.040101   4.770258   0.413712
     6  H    0.000174   0.003758  -0.040886  -0.003522   0.413712   0.630341
     7  C    0.004341  -0.080156  -0.058286   0.007290   0.525357  -0.040067
     8  H    0.000345   0.004118   0.009539  -0.000067  -0.043506  -0.005979
     9  C   -0.066096   0.430806  -0.136235   0.002764  -0.039141   0.009052
    10  C   -0.008546  -0.043776   0.008064  -0.000789   0.009101  -0.000202
    11  N    0.345913  -0.028039   0.000139   0.000181  -0.000088   0.000002
    12  C   -0.026472   0.000253  -0.000002  -0.000006   0.000000  -0.000000
    13  H    0.000242   0.000180  -0.000005   0.000000  -0.000000  -0.000000
    14  C   -0.000821  -0.000103  -0.000002  -0.000000  -0.000000   0.000000
    15  H    0.000161   0.000002  -0.000000  -0.000000   0.000000  -0.000000
    16  C    0.003768   0.000034   0.000026   0.000001   0.000000  -0.000000
    17  H    0.000312  -0.000008   0.000000  -0.000000   0.000000  -0.000000
    18  C   -0.066415  -0.011302  -0.000351   0.000092  -0.000497   0.000005
    19  F    0.450386  -0.027094   0.005534   0.002394   0.000390   0.000002
    20  F    0.474349  -0.027119  -0.002530  -0.000381  -0.000085   0.000000
    21  C    0.002359   0.003790  -0.000172   0.000004   0.000571  -0.000001
    22  C   -0.000116   0.000059  -0.000043   0.000001   0.000296   0.000003
    23  H   -0.000023  -0.000189  -0.000092  -0.000001   0.000383   0.000006
    24  C    0.000002  -0.000000   0.000001   0.000000  -0.000011  -0.000000
    25  H    0.000000   0.000000  -0.000000  -0.000000  -0.000000   0.000000
    26  C   -0.000000  -0.000000   0.000000   0.000000  -0.000000  -0.000000
    27  C    0.000001   0.000001  -0.000000   0.000000  -0.000000  -0.000000
    28  H    0.000000  -0.000000   0.000000  -0.000000  -0.000000  -0.000000
    29  C    0.000006  -0.000074   0.000002  -0.000000  -0.000004   0.000000
    30  H   -0.000021  -0.000002  -0.000000  -0.000000  -0.000002   0.000000
    31  H    0.000000   0.000000   0.000000   0.000000  -0.000000  -0.000000
               7          8          9         10         11         12
     1  B    0.004341   0.000345  -0.066096  -0.008546   0.345913  -0.026472
     2  N   -0.080156   0.004118   0.430806  -0.043776  -0.028039   0.000253
     3  C   -0.058286   0.009539  -0.136235   0.008064   0.000139  -0.000002
     4  H    0.007290  -0.000067   0.002764  -0.000789   0.000181  -0.000006
     5  C    0.525357  -0.043506  -0.039141   0.009101  -0.000088   0.000000
     6  H   -0.040067  -0.005979   0.009052  -0.000202   0.000002  -0.000000
     7  C    4.920151   0.412600   0.452649  -0.105870   0.000073   0.000024
     8  H    0.412600   0.637329  -0.031635  -0.013824  -0.000007   0.000000
     9  C    0.452649  -0.031635   5.029623   0.310348  -0.011275  -0.000351
    10  C   -0.105870  -0.013824   0.310348   5.402087  -0.043962   0.008283
    11  N    0.000073  -0.000007  -0.011275  -0.043962   6.211993   0.482335
    12  C    0.000024   0.000000  -0.000351   0.008283   0.482335   4.782502
    13  H    0.000001  -0.000000   0.000099  -0.000825  -0.025414   0.403508
    14  C    0.000002  -0.000000  -0.000529   0.008666  -0.054523   0.466153
    15  H   -0.000000  -0.000000   0.000005  -0.000202   0.003777  -0.041086
    16  C   -0.000087   0.000003   0.011448  -0.105811  -0.081719  -0.057714
    17  H   -0.000000   0.000001   0.000068  -0.012123   0.004019   0.009498
    18  C    0.010532   0.000003  -0.003742   0.312479   0.431113  -0.135740
    19  F   -0.000120   0.000001  -0.003552   0.001370  -0.026251   0.005424
    20  F    0.000040   0.000001  -0.001267   0.000216  -0.028073  -0.002592
    21  C   -0.011236   0.003424  -0.076715   0.389831   0.003626  -0.000163
    22  C   -0.001781   0.003626  -0.018301  -0.075312  -0.000095   0.000001
    23  H    0.003985  -0.000707  -0.001452  -0.012938  -0.000003   0.000000
    24  C   -0.000465   0.000910   0.000643   0.007204   0.000000  -0.000000
    25  H    0.000012  -0.000002   0.000009  -0.000447  -0.000000   0.000000
    26  C   -0.000010  -0.000007   0.000001   0.001293  -0.000000   0.000000
    27  C   -0.000013  -0.000061  -0.000259   0.006988   0.000001   0.000000
    28  H   -0.000000   0.000000   0.000003  -0.000434   0.000000  -0.000000
    29  C    0.000778  -0.000103   0.005300  -0.076750   0.000129  -0.000049
    30  H    0.000031   0.000003   0.000458  -0.013208  -0.000167  -0.000111
    31  H   -0.000000   0.000001   0.000000   0.000005   0.000000   0.000000
              13         14         15         16         17         18
     1  B    0.000242  -0.000821   0.000161   0.003768   0.000312  -0.066415
     2  N    0.000180  -0.000103   0.000002   0.000034  -0.000008  -0.011302
     3  C   -0.000005  -0.000002  -0.000000   0.000026   0.000000  -0.000351
     4  H    0.000000  -0.000000  -0.000000   0.000001  -0.000000   0.000092
     5  C   -0.000000  -0.000000   0.000000   0.000000   0.000000  -0.000497
     6  H   -0.000000   0.000000  -0.000000  -0.000000  -0.000000   0.000005
     7  C    0.000001   0.000002  -0.000000  -0.000087  -0.000000   0.010532
     8  H   -0.000000  -0.000000  -0.000000   0.000003   0.000001   0.000003
     9  C    0.000099  -0.000529   0.000005   0.011448   0.000068  -0.003742
    10  C   -0.000825   0.008666  -0.000202  -0.105811  -0.012123   0.312479
    11  N   -0.025414  -0.054523   0.003777  -0.081719   0.004019   0.431113
    12  C    0.403508   0.466153  -0.041086  -0.057714   0.009498  -0.135740
    13  H    0.589779  -0.040071  -0.003513   0.007418  -0.000066   0.002647
    14  C   -0.040071   4.771811   0.413519   0.523441  -0.042775  -0.037811
    15  H   -0.003513   0.413519   0.630335  -0.039577  -0.006108   0.009065
    16  C    0.007418   0.523441  -0.039577   4.931982   0.412045   0.448784
    17  H   -0.000066  -0.042775  -0.006108   0.412045   0.635709  -0.032474
    18  C    0.002647  -0.037811   0.009065   0.448784  -0.032474   5.022698
    19  F    0.002047   0.000390   0.000002  -0.000118   0.000000  -0.003515
    20  F   -0.000339  -0.000150  -0.000000   0.000045   0.000001  -0.001318
    21  C    0.000005   0.000685  -0.000001  -0.012277   0.001901  -0.073344
    22  C   -0.000000   0.000009   0.000000   0.000554  -0.000170   0.005954
    23  H   -0.000000  -0.000001   0.000000  -0.000010   0.000000   0.000957
    24  C   -0.000000  -0.000000  -0.000000  -0.000004  -0.000050  -0.000316
    25  H   -0.000000   0.000000  -0.000000  -0.000000   0.000000   0.000003
    26  C    0.000000   0.000000  -0.000000  -0.000008  -0.000015   0.000001
    27  C    0.000000  -0.000014  -0.000000  -0.000260   0.001235   0.000600
    28  H   -0.000000  -0.000000   0.000000   0.000016  -0.000004   0.000013
    29  C    0.000000   0.000283   0.000006  -0.001148   0.004801  -0.016381
    30  H   -0.000001   0.000640   0.000010   0.004782  -0.001008  -0.002076
    31  H    0.000000  -0.000000  -0.000000  -0.000000   0.000000   0.000000
              19         20         21         22         23         24
     1  B    0.450386   0.474349   0.002359  -0.000116  -0.000023   0.000002
     2  N   -0.027094  -0.027119   0.003790   0.000059  -0.000189  -0.000000
     3  C    0.005534  -0.002530  -0.000172  -0.000043  -0.000092   0.000001
     4  H    0.002394  -0.000381   0.000004   0.000001  -0.000001   0.000000
     5  C    0.000390  -0.000085   0.000571   0.000296   0.000383  -0.000011
     6  H    0.000002   0.000000  -0.000001   0.000003   0.000006  -0.000000
     7  C   -0.000120   0.000040  -0.011236  -0.001781   0.003985  -0.000465
     8  H    0.000001   0.000001   0.003424   0.003626  -0.000707   0.000910
     9  C   -0.003552  -0.001267  -0.076715  -0.018301  -0.001452   0.000643
    10  C    0.001370   0.000216   0.389831  -0.075312  -0.012938   0.007204
    11  N   -0.026251  -0.028073   0.003626  -0.000095  -0.000003   0.000000
    12  C    0.005424  -0.002592  -0.000163   0.000001   0.000000  -0.000000
    13  H    0.002047  -0.000339   0.000005  -0.000000  -0.000000  -0.000000
    14  C    0.000390  -0.000150   0.000685   0.000009  -0.000001  -0.000000
    15  H    0.000002  -0.000000  -0.000001   0.000000   0.000000  -0.000000
    16  C   -0.000118   0.000045  -0.012277   0.000554  -0.000010  -0.000004
    17  H    0.000000   0.000001   0.001901  -0.000170   0.000000  -0.000050
    18  C   -0.003515  -0.001318  -0.073344   0.005954   0.000957  -0.000316
    19  F    8.854502  -0.020135   0.000003  -0.000000  -0.000000  -0.000000
    20  F   -0.020135   8.846228   0.000004   0.000000   0.000000   0.000000
    21  C    0.000003   0.000004   5.026359   0.492760  -0.050877  -0.008402
    22  C   -0.000000   0.000000   0.492760   4.804405   0.404293   0.521364
    23  H   -0.000000   0.000000  -0.050877   0.404293   0.671931  -0.035038
    24  C   -0.000000   0.000000  -0.008402   0.521364  -0.035038   4.714314
    25  H    0.000000  -0.000000   0.008423  -0.036293  -0.012444   0.398036
    26  C   -0.000000   0.000000  -0.063330  -0.020550   0.009041   0.510174
    27  C    0.000000  -0.000000  -0.008819  -0.065267  -0.000679  -0.010277
    28  H    0.000000   0.000000   0.008329   0.000097   0.000053   0.008318
    29  C    0.000000  -0.000000   0.494234  -0.024385   0.009635  -0.065559
    30  H    0.000000  -0.000000  -0.049626   0.009279  -0.000172  -0.000629
    31  H   -0.000000   0.000000  -0.000503   0.009327  -0.000190  -0.043513
              25         26         27         28         29         30
     1  B    0.000000  -0.000000   0.000001   0.000000   0.000006  -0.000021
     2  N    0.000000  -0.000000   0.000001  -0.000000  -0.000074  -0.000002
     3  C   -0.000000   0.000000  -0.000000   0.000000   0.000002  -0.000000
     4  H   -0.000000   0.000000   0.000000  -0.000000  -0.000000  -0.000000
     5  C   -0.000000  -0.000000  -0.000000  -0.000000  -0.000004  -0.000002
     6  H    0.000000  -0.000000  -0.000000  -0.000000   0.000000   0.000000
     7  C    0.000012  -0.000010  -0.000013  -0.000000   0.000778   0.000031
     8  H   -0.000002  -0.000007  -0.000061   0.000000  -0.000103   0.000003
     9  C    0.000009   0.000001  -0.000259   0.000003   0.005300   0.000458
    10  C   -0.000447   0.001293   0.006988  -0.000434  -0.076750  -0.013208
    11  N   -0.000000  -0.000000   0.000001   0.000000   0.000129  -0.000167
    12  C    0.000000   0.000000   0.000000  -0.000000  -0.000049  -0.000111
    13  H   -0.000000   0.000000   0.000000  -0.000000   0.000000  -0.000001
    14  C    0.000000   0.000000  -0.000014  -0.000000   0.000283   0.000640
    15  H   -0.000000  -0.000000  -0.000000   0.000000   0.000006   0.000010
    16  C   -0.000000  -0.000008  -0.000260   0.000016  -0.001148   0.004782
    17  H    0.000000  -0.000015   0.001235  -0.000004   0.004801  -0.001008
    18  C    0.000003   0.000001   0.000600   0.000013  -0.016381  -0.002076
    19  F    0.000000  -0.000000   0.000000   0.000000   0.000000   0.000000
    20  F   -0.000000   0.000000  -0.000000   0.000000  -0.000000  -0.000000
    21  C    0.008423  -0.063330  -0.008819   0.008329   0.494234  -0.049626
    22  C   -0.036293  -0.020550  -0.065267   0.000097  -0.024385   0.009279
    23  H   -0.012444   0.009041  -0.000679   0.000053   0.009635  -0.000172
    24  C    0.398036   0.510174  -0.010277   0.008318  -0.065559  -0.000629
    25  H    0.667781  -0.045072   0.008345  -0.000210   0.000058   0.000053
    26  C   -0.045072   4.759360   0.512147  -0.044810  -0.021128   0.008887
    27  C    0.008345   0.512147   4.712013   0.397744   0.521127  -0.034116
    28  H   -0.000210  -0.044810   0.397744   0.667582  -0.036065  -0.012386
    29  C    0.000058  -0.021128   0.521127  -0.036065   4.808513   0.402484
    30  H    0.000053   0.008887  -0.034116  -0.012386   0.402484   0.670441
    31  H   -0.012259   0.402639  -0.043376  -0.012266   0.009381  -0.000192
              31
     1  B    0.000000
     2  N    0.000000
     3  C    0.000000
     4  H    0.000000
     5  C   -0.000000
     6  H   -0.000000
     7  C   -0.000000
     8  H    0.000001
     9  C    0.000000
    10  C    0.000005
    11  N    0.000000
    12  C    0.000000
    13  H    0.000000
    14  C   -0.000000
    15  H   -0.000000
    16  C   -0.000000
    17  H    0.000000
    18  C    0.000000
    19  F   -0.000000
    20  F    0.000000
    21  C   -0.000503
    22  C    0.009327
    23  H   -0.000190
    24  C   -0.043513
    25  H   -0.012259
    26  C    0.402639
    27  C   -0.043376
    28  H   -0.012266
    29  C    0.009381
    30  H   -0.000192
    31  H    0.668335
 Mulliken charges:
               1
     1  B    0.169026
     2  N   -0.179963
     3  C    0.104992
     4  H    0.064020
     5  C   -0.009175
     6  H    0.033603
     7  C   -0.039775
     8  H    0.023995
     9  C    0.137276
    10  C    0.049084
    11  N   -0.183686
    12  C    0.106304
    13  H    0.064308
    14  C   -0.008799
    15  H    0.033606
    16  C   -0.045612
    17  H    0.025211
    18  C    0.140339
    19  F   -0.241663
    20  F   -0.236894
    21  C   -0.080840
    22  C   -0.009714
    23  H    0.014533
    24  C    0.003299
    25  H    0.024009
    26  C   -0.008612
    27  C    0.002939
    28  H    0.024021
    29  C   -0.015091
    30  H    0.016648
    31  H    0.022611
 Sum of Mulliken charges =  -0.00000
 Mulliken charges with hydrogens summed into heavy atoms:
               1
     1  B    0.169026
     2  N   -0.179963
     3  C    0.169012
     5  C    0.024428
     7  C   -0.015780
     9  C    0.137276
    10  C    0.049084
    11  N   -0.183686
    12  C    0.170611
    14  C    0.024807
    16  C   -0.020402
    18  C    0.140339
    19  F   -0.241663
    20  F   -0.236894
    21  C   -0.080840
    22  C    0.004819
    24  C    0.027308
    26  C    0.013999
    27  C    0.026960
    29  C    0.001557
 Electronic spatial extent (au):  <R**2>=           8488.5079
 Charge=              0.0000 electrons
 Dipole moment (field-independent basis, Debye):
    X=             -4.1230    Y=              1.3469    Z=              3.2109  Tot=              5.3966
 Quadrupole moment (field-independent basis, Debye-Ang):
   XX=            -87.2212   YY=           -118.7460   ZZ=            -87.5482
   XY=             -3.1597   XZ=             -1.6783   YZ=             -3.5484
 Traceless Quadrupole moment (field-independent basis, Debye-Ang):
   XX=             10.6173   YY=            -20.9076   ZZ=             10.2903
   XY=             -3.1597   XZ=             -1.6783   YZ=             -3.5484
 Octapole moment (field-independent basis, Debye-Ang**2):
  XXX=            605.4017  YYY=             13.8828  ZZZ=           -485.2911  XYY=            242.7969
  XXY=             31.7637  XXZ=           -117.4803  XZZ=            182.3071  YZZ=            -16.8049
  YYZ=           -184.9602  XYZ=              9.9570
 Hexadecapole moment (field-independent basis, Debye-Ang**3):
 XXXX=          -5771.0302 YYYY=           -369.0457 ZZZZ=          -4313.8804 XXXY=           -171.0323
 XXXZ=           1281.9802 YYYX=             33.9053 YYYZ=             56.0233 ZZZX=           1480.3891
 ZZZY=            -68.7483 XXYY=          -1163.2436 XXZZ=          -1442.9755 YYZZ=           -869.2878
 XXYZ=             28.9755 YYXZ=            546.6389 ZZXY=            100.7780
 N-N= 1.465716446526D+03 E-N=-5.061177116428D+03  KE= 9.065630876223D+02
 No NMR shielding tensors so no spin-rotation constants.
 Leave Link  601 at Mon Jan 31 15:41:20 2022, MaxMem= 49660559360 cpu:              10.3 elap:               0.4
 (Enter /lustre1/prg/gaussian/bin/G16_C01_Linda_AVX2/g16/l9999.exe)
 Electronic transition elements 
                 1             2             3             4             5 
      1  -0.912096D+03 -0.912052D+03 -0.912048D+03 -0.912037D+03 -0.912034D+03
      2   0.191593D+01 -0.179694D+01 -0.733769D+00 -0.656987D+00  0.105272D+00
      3  -0.505335D-01 -0.781390D-01  0.866179D-02 -0.254847D-02 -0.310152D+00
      4   0.256466D+01  0.144387D+01 -0.755640D+00  0.480061D+00 -0.164629D-01
      5  -0.188543D+00  0.253299D+00  0.108918D+00  0.103845D+00 -0.197628D-01
      6   0.587455D-02  0.109021D-01 -0.164219D-02  0.117338D-02  0.529879D-01
      7  -0.252349D+00 -0.204086D+00  0.113016D+00 -0.766634D-01 -0.516497D-03
      8  -0.167582D-01  0.375682D-01 -0.814596D-02 -0.782859D-01 -0.432323D+00
      9  -0.235423D+01  0.623210D-01 -0.509576D+00 -0.107219D+00 -0.547515D+00
     10  -0.336847D-01 -0.533521D-01  0.688151D-01 -0.156783D+00 -0.547524D+00
     11   0.728547D+00 -0.255107D+01 -0.102165D+01 -0.606645D+00  0.328747D+00
     12   0.157956D-02 -0.688842D-01 -0.297750D-02  0.920394D-04 -0.109799D-01
     13  -0.754849D+00 -0.118388D+01  0.801791D+00 -0.448422D+00 -0.252824D+00
     14  -0.511430D-01 -0.123903D-01  0.440234D-01 -0.506469D-01 -0.420607D+00
     15   0.218894D+00  0.271721D+01 -0.817620D-01  0.368347D+00  0.650735D-01
     16  -0.535928D-01  0.793645D-01  0.103849D-01  0.310481D-01  0.340854D+00
                 6 
      1  -0.911988D+03
      2   0.886783D+00
      3   0.876571D-01
      4  -0.687629D+00
      5  -0.180960D+00
      6  -0.173000D-01
      7   0.140965D+00
      8   0.105130D-01
      9   0.291247D-01
     10   0.112882D+00
     11   0.111034D+01
     12   0.763482D-01
     13   0.166648D+00
     14   0.265432D-01
     15  -0.176139D+01
     16  -0.878866D-01
 Unable to Open any file for archive entry.
 1\1\VILNIUS-FIZIKA343\FOpt\RM062X TD-FC\CC-pVDZ\C15H11B1F2N2\TOLISTE\3
 1-Jan-2022\0\\#p m062x cc-pvdz scrf=(cpcm,solvent=n,n-DiMethylFormamid
 e) td=(nstate=6,root=1) opt=tight nosymm density=all int=ultrafine fch
 k\\BDP-phenyl, optimized S1 in toluene\\0,1\B,-0.0154669988,-0.2507657
 392,0.0108455136\N,0.0013641708,-0.0674668977,1.5433105759\C,1.0971930
 863,0.0368514672,2.3052507511\H,2.0891395485,0.0364331249,1.8579202342
 \C,0.7253828348,0.1444284245,3.6725783049\H,1.4164223708,0.2476894942,
 4.5043606065\C,-0.6599302586,0.1083078745,3.7224255445\H,-1.2968150638
 ,0.1973650634,4.597060414\C,-1.1236947876,-0.0264881532,2.378344744\C,
 -2.4454054721,-0.0326562138,1.8511163543\N,-1.473034939,0.0444190563,-
 0.4091896785\C,-1.9006854959,0.1547777693,-1.6729635373\H,-1.195324396
 8,0.162915358,-2.5015704723\C,-3.3193181829,0.2243544164,-1.6984082835
 \H,-3.9279084618,0.3126697647,-2.5938804078\C,-3.7554483154,0.14811520
 94,-0.3841936596\H,-4.7798980097,0.1562609604,-0.0266213834\C,-2.59190
 18037,0.046194859,0.4385539188\F,0.8654112562,0.6410757943,-0.60043638
 8\F,0.3327906146,-1.5629872876,-0.3334897604\C,-3.6086217591,-0.046931
 7174,2.752638076\C,-3.6734246433,-0.9710896324,3.8102588889\H,-2.86626
 13463,-1.6940139528,3.9407885735\C,-4.7678872556,-0.9886041852,4.67081
 1211\H,-4.8056151639,-1.7190251721,5.4796696294\C,-5.8154186044,-0.082
 8103088,4.4946811423\C,-5.7595181275,0.8428922604,3.4518585756\H,-6.56
 73863636,1.5624023034,3.314620071\C,-4.6673983841,0.8626500428,2.58769
 31568\H,-4.6169847977,1.610256031,1.7948365714\H,-6.6717592504,-0.0972
 220138,5.1695517135\\Version=ES64L-G16RevC.01\HF=-912.1920734\RMSD=9.2
 02e-09\RMSF=1.891e-06\Dipole=-1.6221169,0.5299267,1.2632545\Quadrupole
 =7.8937026,-15.5442586,7.650556,-2.3491547,-1.2477734,-2.6381159\PG=C0
 1 [X(C15H11B1F2N2)]\\@
 The archive entry for this job was punched.


 CONFIDENCE IS WHAT YOU FEEL BEFORE YOU FULLY
 COMPREHEND THE SITUATION.
 Job cpu time:       0 days  0 hours  7 minutes 11.5 seconds.
 Elapsed time:       0 days  1 hours 49 minutes 28.2 seconds.
 File lengths (MBytes):  RWF=    779 Int=      0 D2E=      0 Chk=     37 Scr=      1
 Normal termination of Gaussian 16 at Mon Jan 31 15:41:21 2022.
