 Entering Gaussian System, Link 0=/lustre1/prg/gaussian/bin/G16_C01_Linda9.2_SSE4/g16/g16
 Initial command:
 /lustre1/prg/gaussian/bin/G16_C01_Linda9.2_SSE4/g16/l1.exe "/lustre1/prg/webmo/data/webmo20/toliste/4420/scratch/Gau-1477211.inp" -scrdir="/lustre1/prg/webmo/data/webmo20/toliste/4420/scratch/"
 Default is to use a total of  12 processors:
                               12 via shared-memory
                                1 via Linda
 Entering Link 1 = /lustre1/prg/gaussian/bin/G16_C01_Linda9.2_SSE4/g16/l1.exe PID=   1477212.
  
 Copyright (c) 1988-2019, Gaussian, Inc.  All Rights Reserved.
  
 This is part of the Gaussian(R) 16 program.  It is based on
 the Gaussian(R) 09 system (copyright 2009, Gaussian, Inc.),
 the Gaussian(R) 03 system (copyright 2003, Gaussian, Inc.),
 the Gaussian(R) 98 system (copyright 1998, Gaussian, Inc.),
 the Gaussian(R) 94 system (copyright 1995, Gaussian, Inc.),
 the Gaussian 92(TM) system (copyright 1992, Gaussian, Inc.),
 the Gaussian 90(TM) system (copyright 1990, Gaussian, Inc.),
 the Gaussian 88(TM) system (copyright 1988, Gaussian, Inc.),
 the Gaussian 86(TM) system (copyright 1986, Carnegie Mellon
 University), and the Gaussian 82(TM) system (copyright 1983,
 Carnegie Mellon University). Gaussian is a federally registered
 trademark of Gaussian, Inc.
  
 This software contains proprietary and confidential information,
 including trade secrets, belonging to Gaussian, Inc.
  
 This software is provided under written license and may be
 used, copied, transmitted, or stored only in accord with that
 written license.
  
 The following legend is applicable only to US Government
 contracts under FAR:
  
                    RESTRICTED RIGHTS LEGEND
  
 Use, reproduction and disclosure by the US Government is
 subject to restrictions as set forth in subparagraphs (a)
 and (c) of the Commercial Computer Software - Restricted
 Rights clause in FAR 52.227-19.
  
 Gaussian, Inc.
 340 Quinnipiac St., Bldg. 40, Wallingford CT 06492
  
  
 ---------------------------------------------------------------
 Warning -- This program may not be used in any manner that
 competes with the business of Gaussian, Inc. or will provide
 assistance to any competitor of Gaussian, Inc.  The licensee
 of this program is prohibited from giving any competitor of
 Gaussian, Inc. access to this program.  By using this program,
 the user acknowledges that Gaussian, Inc. is engaged in the
 business of creating and licensing software in the field of
 computational chemistry and represents and warrants to the
 licensee that it is not a competitor of Gaussian, Inc. and that
 it will not use this program in any manner prohibited above.
 ---------------------------------------------------------------
  

 Cite this work as:
 Gaussian 16, Revision C.01,
 M. J. Frisch, G. W. Trucks, H. B. Schlegel, G. E. Scuseria, 
 M. A. Robb, J. R. Cheeseman, G. Scalmani, V. Barone, 
 G. A. Petersson, H. Nakatsuji, X. Li, M. Caricato, A. V. Marenich, 
 J. Bloino, B. G. Janesko, R. Gomperts, B. Mennucci, H. P. Hratchian, 
 J. V. Ortiz, A. F. Izmaylov, J. L. Sonnenberg, D. Williams-Young, 
 F. Ding, F. Lipparini, F. Egidi, J. Goings, B. Peng, A. Petrone, 
 T. Henderson, D. Ranasinghe, V. G. Zakrzewski, J. Gao, N. Rega, 
 G. Zheng, W. Liang, M. Hada, M. Ehara, K. Toyota, R. Fukuda, 
 J. Hasegawa, M. Ishida, T. Nakajima, Y. Honda, O. Kitao, H. Nakai, 
 T. Vreven, K. Throssell, J. A. Montgomery, Jr., J. E. Peralta, 
 F. Ogliaro, M. J. Bearpark, J. J. Heyd, E. N. Brothers, K. N. Kudin, 
 V. N. Staroverov, T. A. Keith, R. Kobayashi, J. Normand, 
 K. Raghavachari, A. P. Rendell, J. C. Burant, S. S. Iyengar, 
 J. Tomasi, M. Cossi, J. M. Millam, M. Klene, C. Adamo, R. Cammi, 
 J. W. Ochterski, R. L. Martin, K. Morokuma, O. Farkas, 
 J. B. Foresman, and D. J. Fox, Gaussian, Inc., Wallingford CT, 2019.
 
 ******************************************
 Gaussian 16:  ES64L-G16RevC.01  3-Jul-2019
                 1-Feb-2022 
 ******************************************
 %LindaWorkers=fizika65,fizika66,fizika67,fizika68,fizika69,fizika70,fizika71,fiz
 ika72
 %chk=bodipy.chk
 SetLPE:  input flags=" -opt "Tsnet.Node.lindarsharg: ssh" "
 SetLPE:    new flags=" -opt "Tsnet.Node.lindarsharg: ssh" -opt 'Tsnet.Node.lindarsharg: ssh'  -nodelist 'fizika65.fizika.bullx fizika66.fizika.bullx fizika67.fizika.bullx fizika68.fizika.bullx fizika69.fizika.bullx fizika70.fizika.bullx fizika71.fizika.bullx fizika72.fizika.bullx' -env GAUSS_MDEF=11408506880 -env GAUSS_EXEDIR="/lustre1/prg/gaussian/bin/G16_C01_Linda9.2_SSE4/g16/bsd:/lustre1/prg/gaussian/bin/G16_C01_Linda9.2_SSE4/g16/private:/lustre1/prg/gaussian/bin/G16_C01_Linda9.2_SSE4/g16""
 Will use up to    8 processors via Linda.
 ----------------------------------------------------------------------
 #p m062x cc-pvdz scrf=(cpcm,solvent=TetraHydroFuran) td=(nstate=6,root
 =1) opt=tight nosymm density=all int=ultrafine fchk
 ----------------------------------------------------------------------
 1/7=10,18=20,19=15,26=6,38=1/1,3;
 2/9=110,12=2,15=1,17=6,18=5,40=1/2;
 3/5=16,11=9,25=1,30=1,70=2101,71=1,72=20,74=-55,75=-5/1,2,3,8;
 4//1;
 5/5=2,38=5,53=20/2;
 8/6=1,10=1,107=1,108=6/1;
 9/8=1,15=2,30=10,41=6,42=1,70=2/14;
 10/5=4,28=1,31=1/2;
 6/7=2,8=2,9=2,10=2,22=-2/1;
 7/12=6,13=5,14=1,30=1/1,2,3,16;
 1/7=10,18=20,19=15,26=6/3(2);
 2/9=110,15=1/2;
 99//99;
 2/9=110,15=1/2;
 3/5=16,11=9,25=1,30=1,70=2105,71=1,72=20,74=-55,75=-5/1,2,3,8;
 4/5=5,16=3,69=1/1;
 5/5=2,38=5,53=20/2;
 8/6=1,10=1,107=1,108=6/1;
 9/8=1,15=2,30=10,41=6,42=1,49=4,70=2/14;
 10/5=4,28=1,31=1/2;
 7/12=6,13=5,14=1,30=1/1,2,3,16;
 1/7=10,18=20,19=15,26=6/3(-8);
 2/9=110,15=1/2;
 6/7=2,8=2,9=2,10=2,22=-2/1;
 99/9=10/99;
 Leave Link    1 at Tue Feb  1 12:18:18 2022, MaxMem=           0 cpu:               1.3 elap:               0.1
 (Enter /lustre1/prg/gaussian/bin/G16_C01_Linda9.2_SSE4/g16/l101.exe)
 -----------------------------------
 BDP-phenyl, optimized S1 in toluene
 -----------------------------------
 Symbolic Z-matrix:
 Charge =  0 Multiplicity = 1
 B                    -0.02231  -0.31808   0.01333 
 N                    -0.00171  -0.08569   1.54179 
 C                     1.0918    0.04446   2.29711 
 H                     2.08119   0.03819   1.84491 
 C                     0.7197    0.18272   3.66194 
 H                     1.40889   0.30959   4.49193 
 C                    -0.66741   0.14007   3.71363 
 H                    -1.30494   0.25247   4.58505 
 C                    -1.12869  -0.02985   2.37723 
 C                    -2.45225  -0.04016   1.84905 
 N                    -1.46798   0.04399  -0.40749 
 C                    -1.88279   0.18662  -1.66883 
 H                    -1.16857   0.19057  -2.48945 
 C                    -3.29967   0.28411  -1.70166 
 H                    -3.90248   0.3967   -2.59829 
 C                    -3.74698   0.19189  -0.39007 
 H                    -4.77383   0.20989  -0.04061 
 C                    -2.59401   0.05427   0.43543 
 F                     0.89563   0.51262  -0.61981 
 F                     0.24685  -1.65443  -0.28466 
 C                    -3.61113  -0.05792   2.75119 
 C                    -3.65983  -0.9701    3.82109 
 H                    -2.84201  -1.68028   3.95478 
 C                    -4.75117  -0.99431   4.68413 
 H                    -4.77664  -1.71742   5.50007 
 C                    -5.81224  -0.10577   4.50205 
 C                    -5.77179   0.80971   3.44993 
 H                    -6.58902   1.51803   3.30947 
 C                    -4.68401   0.83511   2.58143 
 H                    -4.64371   1.57825   1.78411 
 H                    -6.66629  -0.12526   5.17963 
 
 ITRead=  0  0  0  0  0  0  0  0  0  0  0  0  0  0  0  0  0  0  0  0
 ITRead=  0  0  0  0  0  0  0  0  0  0  0
 MicOpt= -1 -1 -1 -1 -1 -1 -1 -1 -1 -1 -1 -1 -1 -1 -1 -1 -1 -1 -1 -1
 MicOpt= -1 -1 -1 -1 -1 -1 -1 -1 -1 -1 -1
 NAtoms=     31 NQM=       31 NQMF=       0 NMMI=      0 NMMIF=      0
                NMic=       0 NMicF=      0.
                    Isotopes and Nuclear Properties:
 (Nuclear quadrupole moments (NQMom) in fm**2, nuclear magnetic moments (NMagM)
  in nuclear magnetons)

  Atom         1           2           3           4           5           6           7           8           9          10
 IAtWgt=          11          14          12           1          12           1          12           1          12          12
 AtmWgt=  11.0093053  14.0030740  12.0000000   1.0078250  12.0000000   1.0078250  12.0000000   1.0078250  12.0000000  12.0000000
 NucSpn=           3           2           0           1           0           1           0           1           0           0
 AtZEff=  -0.0000000  -0.0000000  -0.0000000  -0.0000000  -0.0000000  -0.0000000  -0.0000000  -0.0000000  -0.0000000  -0.0000000
 NQMom=    4.0590000   2.0440000   0.0000000   0.0000000   0.0000000   0.0000000   0.0000000   0.0000000   0.0000000   0.0000000
 NMagM=    2.6886370   0.4037610   0.0000000   2.7928460   0.0000000   2.7928460   0.0000000   2.7928460   0.0000000   0.0000000
 AtZNuc=   5.0000000   7.0000000   6.0000000   1.0000000   6.0000000   1.0000000   6.0000000   1.0000000   6.0000000   6.0000000

  Atom        11          12          13          14          15          16          17          18          19          20
 IAtWgt=          14          12           1          12           1          12           1          12          19          19
 AtmWgt=  14.0030740  12.0000000   1.0078250  12.0000000   1.0078250  12.0000000   1.0078250  12.0000000  18.9984033  18.9984033
 NucSpn=           2           0           1           0           1           0           1           0           1           1
 AtZEff=  -0.0000000  -0.0000000  -0.0000000  -0.0000000  -0.0000000  -0.0000000  -0.0000000  -0.0000000  -0.0000000  -0.0000000
 NQMom=    2.0440000   0.0000000   0.0000000   0.0000000   0.0000000   0.0000000   0.0000000   0.0000000   0.0000000   0.0000000
 NMagM=    0.4037610   0.0000000   2.7928460   0.0000000   2.7928460   0.0000000   2.7928460   0.0000000   2.6288670   2.6288670
 AtZNuc=   7.0000000   6.0000000   1.0000000   6.0000000   1.0000000   6.0000000   1.0000000   6.0000000   9.0000000   9.0000000

  Atom        21          22          23          24          25          26          27          28          29          30
 IAtWgt=          12          12           1          12           1          12          12           1          12           1
 AtmWgt=  12.0000000  12.0000000   1.0078250  12.0000000   1.0078250  12.0000000  12.0000000   1.0078250  12.0000000   1.0078250
 NucSpn=           0           0           1           0           1           0           0           1           0           1
 AtZEff=  -0.0000000  -0.0000000  -0.0000000  -0.0000000  -0.0000000  -0.0000000  -0.0000000  -0.0000000  -0.0000000  -0.0000000
 NQMom=    0.0000000   0.0000000   0.0000000   0.0000000   0.0000000   0.0000000   0.0000000   0.0000000   0.0000000   0.0000000
 NMagM=    0.0000000   0.0000000   2.7928460   0.0000000   2.7928460   0.0000000   0.0000000   2.7928460   0.0000000   2.7928460
 AtZNuc=   6.0000000   6.0000000   1.0000000   6.0000000   1.0000000   6.0000000   6.0000000   1.0000000   6.0000000   1.0000000

  Atom        31
 IAtWgt=           1
 AtmWgt=   1.0078250
 NucSpn=           1
 AtZEff=  -0.0000000
 NQMom=    0.0000000
 NMagM=    2.7928460
 AtZNuc=   1.0000000
 Leave Link  101 at Tue Feb  1 12:18:19 2022, MaxMem= 11408506880 cpu:               6.5 elap:               0.6
 (Enter /lustre1/prg/gaussian/bin/G16_C01_Linda9.2_SSE4/g16/l103.exe)

 GradGradGradGradGradGradGradGradGradGradGradGradGradGradGradGradGradGrad
 Berny optimization.
 Initialization pass.
                           ----------------------------
                           !    Initial Parameters    !
                           ! (Angstroms and Degrees)  !
 --------------------------                            --------------------------
 ! Name  Definition              Value          Derivative Info.                !
 --------------------------------------------------------------------------------
 ! R1    R(1,2)                  1.5462         estimate D2E/DX2                !
 ! R2    R(1,11)                 1.5486         estimate D2E/DX2                !
 ! R3    R(1,19)                 1.3905         estimate D2E/DX2                !
 ! R4    R(1,20)                 1.3954         estimate D2E/DX2                !
 ! R5    R(2,3)                  1.3354         estimate D2E/DX2                !
 ! R6    R(2,9)                  1.404          estimate D2E/DX2                !
 ! R7    R(3,4)                  1.0878         estimate D2E/DX2                !
 ! R8    R(3,5)                  1.4214         estimate D2E/DX2                !
 ! R9    R(5,6)                  1.0863         estimate D2E/DX2                !
 ! R10   R(5,7)                  1.3887         estimate D2E/DX2                !
 ! R11   R(7,8)                  1.0856         estimate D2E/DX2                !
 ! R12   R(7,9)                  1.4239         estimate D2E/DX2                !
 ! R13   R(9,10)                 1.4251         estimate D2E/DX2                !
 ! R14   R(10,18)                1.4238         estimate D2E/DX2                !
 ! R15   R(10,21)                1.4687         estimate D2E/DX2                !
 ! R16   R(11,12)                1.3354         estimate D2E/DX2                !
 ! R17   R(11,18)                1.4066         estimate D2E/DX2                !
 ! R18   R(12,13)                1.0879         estimate D2E/DX2                !
 ! R19   R(12,14)                1.4206         estimate D2E/DX2                !
 ! R20   R(14,15)                1.0863         estimate D2E/DX2                !
 ! R21   R(14,16)                1.3888         estimate D2E/DX2                !
 ! R22   R(16,17)                1.0848         estimate D2E/DX2                !
 ! R23   R(16,18)                1.4247         estimate D2E/DX2                !
 ! R24   R(21,22)                1.4068         estimate D2E/DX2                !
 ! R25   R(21,29)                1.4062         estimate D2E/DX2                !
 ! R26   R(22,23)                1.0914         estimate D2E/DX2                !
 ! R27   R(22,24)                1.3916         estimate D2E/DX2                !
 ! R28   R(24,25)                1.0905         estimate D2E/DX2                !
 ! R29   R(24,26)                1.3959         estimate D2E/DX2                !
 ! R30   R(26,27)                1.3952         estimate D2E/DX2                !
 ! R31   R(26,31)                1.0904         estimate D2E/DX2                !
 ! R32   R(27,28)                1.0906         estimate D2E/DX2                !
 ! R33   R(27,29)                1.3922         estimate D2E/DX2                !
 ! R34   R(29,30)                1.0907         estimate D2E/DX2                !
 ! A1    A(2,1,11)             104.2368         estimate D2E/DX2                !
 ! A2    A(2,1,19)             110.5806         estimate D2E/DX2                !
 ! A3    A(2,1,20)             110.6387         estimate D2E/DX2                !
 ! A4    A(11,1,19)            110.6626         estimate D2E/DX2                !
 ! A5    A(11,1,20)            110.2405         estimate D2E/DX2                !
 ! A6    A(19,1,20)            110.3381         estimate D2E/DX2                !
 ! A7    A(1,2,3)              125.7825         estimate D2E/DX2                !
 ! A8    A(1,2,9)              125.6983         estimate D2E/DX2                !
 ! A9    A(3,2,9)              108.4737         estimate D2E/DX2                !
 ! A10   A(2,3,4)              120.603          estimate D2E/DX2                !
 ! A11   A(2,3,5)              109.7685         estimate D2E/DX2                !
 ! A12   A(4,3,5)              129.6279         estimate D2E/DX2                !
 ! A13   A(3,5,6)              125.3761         estimate D2E/DX2                !
 ! A14   A(3,5,7)              107.1121         estimate D2E/DX2                !
 ! A15   A(6,5,7)              127.5076         estimate D2E/DX2                !
 ! A16   A(5,7,8)              127.8286         estimate D2E/DX2                !
 ! A17   A(5,7,9)              106.9958         estimate D2E/DX2                !
 ! A18   A(8,7,9)              125.1335         estimate D2E/DX2                !
 ! A19   A(2,9,7)              107.6485         estimate D2E/DX2                !
 ! A20   A(2,9,10)             121.6466         estimate D2E/DX2                !
 ! A21   A(7,9,10)             130.5098         estimate D2E/DX2                !
 ! A22   A(9,10,18)            117.3846         estimate D2E/DX2                !
 ! A23   A(9,10,21)            120.3479         estimate D2E/DX2                !
 ! A24   A(18,10,21)           122.145          estimate D2E/DX2                !
 ! A25   A(1,11,12)            124.8623         estimate D2E/DX2                !
 ! A26   A(1,11,18)            125.8873         estimate D2E/DX2                !
 ! A27   A(12,11,18)           108.4552         estimate D2E/DX2                !
 ! A28   A(11,12,13)           120.5923         estimate D2E/DX2                !
 ! A29   A(11,12,14)           109.8136         estimate D2E/DX2                !
 ! A30   A(13,12,14)           129.5759         estimate D2E/DX2                !
 ! A31   A(12,14,15)           125.4268         estimate D2E/DX2                !
 ! A32   A(12,14,16)           107.1483         estimate D2E/DX2                !
 ! A33   A(15,14,16)           127.4206         estimate D2E/DX2                !
 ! A34   A(14,16,17)           127.4429         estimate D2E/DX2                !
 ! A35   A(14,16,18)           107.0354         estimate D2E/DX2                !
 ! A36   A(17,16,18)           125.5195         estimate D2E/DX2                !
 ! A37   A(10,18,11)           120.9814         estimate D2E/DX2                !
 ! A38   A(10,18,16)           131.4712         estimate D2E/DX2                !
 ! A39   A(11,18,16)           107.5381         estimate D2E/DX2                !
 ! A40   A(10,21,22)           120.1513         estimate D2E/DX2                !
 ! A41   A(10,21,29)           121.3444         estimate D2E/DX2                !
 ! A42   A(22,21,29)           118.5007         estimate D2E/DX2                !
 ! A43   A(21,22,23)           119.2851         estimate D2E/DX2                !
 ! A44   A(21,22,24)           120.6703         estimate D2E/DX2                !
 ! A45   A(23,22,24)           120.0261         estimate D2E/DX2                !
 ! A46   A(22,24,25)           119.5953         estimate D2E/DX2                !
 ! A47   A(22,24,26)           120.2761         estimate D2E/DX2                !
 ! A48   A(25,24,26)           120.1269         estimate D2E/DX2                !
 ! A49   A(24,26,27)           119.6026         estimate D2E/DX2                !
 ! A50   A(24,26,31)           120.1958         estimate D2E/DX2                !
 ! A51   A(27,26,31)           120.2014         estimate D2E/DX2                !
 ! A52   A(26,27,28)           120.1034         estimate D2E/DX2                !
 ! A53   A(26,27,29)           120.3347         estimate D2E/DX2                !
 ! A54   A(28,27,29)           119.5586         estimate D2E/DX2                !
 ! A55   A(21,29,27)           120.6133         estimate D2E/DX2                !
 ! A56   A(21,29,30)           119.5221         estimate D2E/DX2                !
 ! A57   A(27,29,30)           119.8244         estimate D2E/DX2                !
 ! D1    D(11,1,2,3)          -162.9026         estimate D2E/DX2                !
 ! D2    D(11,1,2,9)            19.8349         estimate D2E/DX2                !
 ! D3    D(19,1,2,3)           -43.9469         estimate D2E/DX2                !
 ! D4    D(19,1,2,9)           138.7906         estimate D2E/DX2                !
 ! D5    D(20,1,2,3)            78.6102         estimate D2E/DX2                !
 ! D6    D(20,1,2,9)           -98.6524         estimate D2E/DX2                !
 ! D7    D(2,1,11,12)          169.1902         estimate D2E/DX2                !
 ! D8    D(2,1,11,18)          -22.2185         estimate D2E/DX2                !
 ! D9    D(19,1,11,12)          50.2904         estimate D2E/DX2                !
 ! D10   D(19,1,11,18)        -141.1183         estimate D2E/DX2                !
 ! D11   D(20,1,11,12)         -72.0506         estimate D2E/DX2                !
 ! D12   D(20,1,11,18)          96.5407         estimate D2E/DX2                !
 ! D13   D(1,2,3,4)              2.9299         estimate D2E/DX2                !
 ! D14   D(1,2,3,5)           -177.3007         estimate D2E/DX2                !
 ! D15   D(9,2,3,4)           -179.4137         estimate D2E/DX2                !
 ! D16   D(9,2,3,5)              0.3557         estimate D2E/DX2                !
 ! D17   D(1,2,9,7)            177.4582         estimate D2E/DX2                !
 ! D18   D(1,2,9,10)            -7.1168         estimate D2E/DX2                !
 ! D19   D(3,2,9,7)             -0.2006         estimate D2E/DX2                !
 ! D20   D(3,2,9,10)           175.2243         estimate D2E/DX2                !
 ! D21   D(2,3,5,6)           -179.6786         estimate D2E/DX2                !
 ! D22   D(2,3,5,7)             -0.3767         estimate D2E/DX2                !
 ! D23   D(4,3,5,6)              0.0637         estimate D2E/DX2                !
 ! D24   D(4,3,5,7)            179.3656         estimate D2E/DX2                !
 ! D25   D(3,5,7,8)           -177.4725         estimate D2E/DX2                !
 ! D26   D(3,5,7,9)              0.2402         estimate D2E/DX2                !
 ! D27   D(6,5,7,8)              1.81           estimate D2E/DX2                !
 ! D28   D(6,5,7,9)            179.5227         estimate D2E/DX2                !
 ! D29   D(5,7,9,2)             -0.034          estimate D2E/DX2                !
 ! D30   D(5,7,9,10)          -174.9099         estimate D2E/DX2                !
 ! D31   D(8,7,9,2)            177.757          estimate D2E/DX2                !
 ! D32   D(8,7,9,10)             2.881          estimate D2E/DX2                !
 ! D33   D(2,9,10,18)           -7.4332         estimate D2E/DX2                !
 ! D34   D(2,9,10,21)          176.5061         estimate D2E/DX2                !
 ! D35   D(7,9,10,18)          166.8291         estimate D2E/DX2                !
 ! D36   D(7,9,10,21)           -9.2316         estimate D2E/DX2                !
 ! D37   D(9,10,18,11)           5.2187         estimate D2E/DX2                !
 ! D38   D(9,10,18,16)        -173.518          estimate D2E/DX2                !
 ! D39   D(21,10,18,11)       -178.7964         estimate D2E/DX2                !
 ! D40   D(21,10,18,16)          2.4669         estimate D2E/DX2                !
 ! D41   D(9,10,21,22)         -48.0529         estimate D2E/DX2                !
 ! D42   D(9,10,21,29)         131.2477         estimate D2E/DX2                !
 ! D43   D(18,10,21,22)        136.0786         estimate D2E/DX2                !
 ! D44   D(18,10,21,29)        -44.6208         estimate D2E/DX2                !
 ! D45   D(1,11,12,13)          -8.8275         estimate D2E/DX2                !
 ! D46   D(1,11,12,14)         169.7613         estimate D2E/DX2                !
 ! D47   D(18,11,12,13)       -179.101          estimate D2E/DX2                !
 ! D48   D(18,11,12,14)         -0.5122         estimate D2E/DX2                !
 ! D49   D(1,11,18,10)          11.7687         estimate D2E/DX2                !
 ! D50   D(1,11,18,16)        -169.224          estimate D2E/DX2                !
 ! D51   D(12,11,18,10)       -178.0834         estimate D2E/DX2                !
 ! D52   D(12,11,18,16)          0.9239         estimate D2E/DX2                !
 ! D53   D(11,12,14,15)       -179.3992         estimate D2E/DX2                !
 ! D54   D(11,12,14,16)         -0.1077         estimate D2E/DX2                !
 ! D55   D(13,12,14,15)         -0.9753         estimate D2E/DX2                !
 ! D56   D(13,12,14,16)        178.3163         estimate D2E/DX2                !
 ! D57   D(12,14,16,17)       -178.815          estimate D2E/DX2                !
 ! D58   D(12,14,16,18)          0.6698         estimate D2E/DX2                !
 ! D59   D(15,14,16,17)          0.4581         estimate D2E/DX2                !
 ! D60   D(15,14,16,18)        179.9429         estimate D2E/DX2                !
 ! D61   D(14,16,18,10)        177.8861         estimate D2E/DX2                !
 ! D62   D(14,16,18,11)         -0.9781         estimate D2E/DX2                !
 ! D63   D(17,16,18,10)         -2.6165         estimate D2E/DX2                !
 ! D64   D(17,16,18,11)        178.5194         estimate D2E/DX2                !
 ! D65   D(10,21,22,23)         -1.7071         estimate D2E/DX2                !
 ! D66   D(10,21,22,24)        179.8587         estimate D2E/DX2                !
 ! D67   D(29,21,22,23)        178.9726         estimate D2E/DX2                !
 ! D68   D(29,21,22,24)          0.5384         estimate D2E/DX2                !
 ! D69   D(10,21,29,27)       -179.6554         estimate D2E/DX2                !
 ! D70   D(10,21,29,30)         -1.9676         estimate D2E/DX2                !
 ! D71   D(22,21,29,27)         -0.3436         estimate D2E/DX2                !
 ! D72   D(22,21,29,30)        177.3442         estimate D2E/DX2                !
 ! D73   D(21,22,24,25)        179.2105         estimate D2E/DX2                !
 ! D74   D(21,22,24,26)         -0.3177         estimate D2E/DX2                !
 ! D75   D(23,22,24,25)          0.7878         estimate D2E/DX2                !
 ! D76   D(23,22,24,26)       -178.7403         estimate D2E/DX2                !
 ! D77   D(22,24,26,27)         -0.1076         estimate D2E/DX2                !
 ! D78   D(22,24,26,31)       -179.9429         estimate D2E/DX2                !
 ! D79   D(25,24,26,27)       -179.6332         estimate D2E/DX2                !
 ! D80   D(25,24,26,31)          0.5314         estimate D2E/DX2                !
 ! D81   D(24,26,27,28)       -179.042          estimate D2E/DX2                !
 ! D82   D(24,26,27,29)          0.302          estimate D2E/DX2                !
 ! D83   D(31,26,27,28)          0.7933         estimate D2E/DX2                !
 ! D84   D(31,26,27,29)       -179.8627         estimate D2E/DX2                !
 ! D85   D(26,27,29,21)         -0.0728         estimate D2E/DX2                !
 ! D86   D(26,27,29,30)       -177.7536         estimate D2E/DX2                !
 ! D87   D(28,27,29,21)        179.2748         estimate D2E/DX2                !
 ! D88   D(28,27,29,30)          1.594          estimate D2E/DX2                !
 --------------------------------------------------------------------------------
 Trust Radius=3.00D-01 FncErr=5.00D-06 GrdErr=5.00D-06 EigMax=2.50D+02 EigMin=1.00D-04
 Number of steps in this run=    186 maximum allowed number of steps=    186.
 GradGradGradGradGradGradGradGradGradGradGradGradGradGradGradGradGradGrad

 Leave Link  103 at Tue Feb  1 12:18:19 2022, MaxMem= 11408506880 cpu:               0.2 elap:               0.0
 (Enter /lustre1/prg/gaussian/bin/G16_C01_Linda9.2_SSE4/g16/l202.exe)
                          Input orientation:                          
 ---------------------------------------------------------------------
 Center     Atomic      Atomic             Coordinates (Angstroms)
 Number     Number       Type             X           Y           Z
 ---------------------------------------------------------------------
      1          5           0       -0.022314   -0.318076    0.013326
      2          7           0       -0.001707   -0.085693    1.541792
      3          6           0        1.091803    0.044455    2.297107
      4          1           0        2.081188    0.038188    1.844910
      5          6           0        0.719696    0.182717    3.661938
      6          1           0        1.408889    0.309587    4.491930
      7          6           0       -0.667405    0.140073    3.713632
      8          1           0       -1.304943    0.252470    4.585053
      9          6           0       -1.128691   -0.029848    2.377234
     10          6           0       -2.452248   -0.040163    1.849047
     11          7           0       -1.467979    0.043992   -0.407485
     12          6           0       -1.882790    0.186621   -1.668830
     13          1           0       -1.168572    0.190570   -2.489452
     14          6           0       -3.299670    0.284113   -1.701663
     15          1           0       -3.902475    0.396698   -2.598289
     16          6           0       -3.746979    0.191894   -0.390067
     17          1           0       -4.773831    0.209893   -0.040610
     18          6           0       -2.594010    0.054270    0.435426
     19          9           0        0.895627    0.512622   -0.619808
     20          9           0        0.246848   -1.654425   -0.284657
     21          6           0       -3.611125   -0.057918    2.751186
     22          6           0       -3.659829   -0.970100    3.821089
     23          1           0       -2.842011   -1.680278    3.954782
     24          6           0       -4.751175   -0.994310    4.684132
     25          1           0       -4.776635   -1.717415    5.500070
     26          6           0       -5.812242   -0.105768    4.502054
     27          6           0       -5.771788    0.809705    3.449932
     28          1           0       -6.589016    1.518026    3.309473
     29          6           0       -4.684012    0.835107    2.581429
     30          1           0       -4.643713    1.578247    1.784107
     31          1           0       -6.666295   -0.125256    5.179633
 ---------------------------------------------------------------------
                    Distance matrix (angstroms):
                    1          2          3          4          5
     1  B    0.000000
     2  N    1.546168   0.000000
     3  C    2.566776   1.335366   0.000000
     4  H    2.811822   2.108478   1.087844   0.000000
     5  C    3.756826   2.255545   1.421388   2.275113   0.000000
     6  H    4.743437   3.293834   2.233402   2.744514   1.086264
     7  C    3.783954   2.282764   2.260641   3.325247   1.388719
     8  H    4.782400   3.327794   3.319994   4.361214   2.226246
     9  C    2.625873   1.403985   2.223181   3.254431   2.261014
    10  C    3.058053   2.470148   3.573264   4.534115   3.660257
    11  N    1.548587   2.442632   3.723883   4.203558   4.622269
    12  C    2.558464   3.731048   4.959543   5.299200   5.932119
    13  H    2.799380   4.205808   5.295450   5.419488   6.434689
    14  C    3.747650   4.640400   5.944126   6.449209   6.703268
    15  H    4.731499   5.708674   7.002270   7.461553   7.784645
    16  C    3.780995   4.223292   5.536827   6.243899   6.030756
    17  H    4.781064   5.036322   6.316483   7.111677   6.624835
    18  C    2.632571   2.821998   4.129306   4.883071   4.626827
    19  F    1.390516   2.415720   2.960753   2.775874   4.298039
    20  F    1.395375   2.420458   3.204005   3.280975   4.378846
    21  C    4.521407   3.806744   4.725907   5.764807   4.432086
    22  C    5.306195   4.399912   5.092136   6.154771   4.531507
    23  H    5.034020   4.053708   4.604072   5.625173   4.030169
    24  C    6.681006   5.766917   6.396664   7.470503   5.688647
    25  H    7.393651   6.413300   6.913879   7.966936   6.099089
    26  C    7.329190   6.521186   7.249151   8.329908   6.592058
    27  C    6.792540   6.143010   7.001678   8.052364   6.525138
    28  H    7.573469   7.006372   7.886145   8.916687   7.438048
    29  C    5.445770   4.883922   5.836609   6.851677   5.549160
    30  H    5.299909   4.937168   5.959180   6.899259   5.851488
    31  H    8.418455   7.592904   8.278034   9.362988   7.546596
                    6          7          8          9         10
     6  H    0.000000
     7  C    2.223843   0.000000
     8  H    2.716030   1.085570   0.000000
     9  C    3.320613   1.423944   2.232764   0.000000
    10  C    4.692071   2.587436   2.981220   1.425093   0.000000
    11  N    5.687810   4.199257   4.999548   2.806284   2.463291
    12  C    6.986074   5.518172   6.280867   4.121427   3.570878
    13  H    7.442927   6.223501   7.076090   4.871838   4.530302
    14  C    7.780217   6.022872   6.595660   4.631320   3.664808
    15  H    8.859423   7.097315   7.639920   5.712412   4.698170
    16  C    7.101459   5.130965   5.542475   3.816092   2.596885
    17  H    7.666804   5.564346   5.782020   4.380695   3.003844
    18  C    5.704701   3.803394   4.349756   2.434102   1.423846
    19  F    5.141452   4.621749   5.656922   3.657102   4.196318
    20  F    5.293719   4.476874   5.455124   3.408375   3.800481
    21  C    5.325954   3.103384   2.962749   2.510599   1.468729
    22  C    5.270629   3.193530   2.761124   3.061936   2.492385
    23  H    4.724219   2.846180   2.548595   2.854478   2.697408
    24  C    6.299482   4.348088   3.666169   4.401631   3.772687
    25  H    6.586789   4.850504   4.095162   5.089939   4.641758
    26  C    7.233074   5.210700   4.522275   5.143566   4.281625
    27  C    7.273101   5.154869   4.642382   4.838789   3.782123
    28  H    8.174657   6.093240   5.581233   5.751533   4.655496
    29  C    6.406998   4.230613   3.971408   3.664717   2.506641
    30  H    6.750985   4.647842   4.555257   3.910646   2.725066
    31  H    8.116072   6.181120   5.407430   6.207061   5.371986
                   11         12         13         14         15
    11  N    0.000000
    12  C    1.335441   0.000000
    13  H    2.108487   1.087908   0.000000
    14  C    2.255581   1.420610   2.273970   0.000000
    15  H    3.294054   2.233194   2.743822   1.086272   0.000000
    16  C    2.283861   2.260633   3.324997   1.388839   2.223144
    17  H    3.330282   3.318096   4.358336   2.222106   2.708483
    18  C    1.406610   2.225139   3.256588   2.262285   3.321561
    19  F    2.418952   2.987696   2.803605   4.338565   5.191301
    20  F    2.416679   3.136996   3.204456   4.282946   5.174638
    21  C    3.818463   4.752208   5.787236   4.476813   5.376657
    22  C    4.869643   5.885158   6.883055   5.674818   6.567757
    23  H    4.887785   6.002535   6.915824   6.005302   6.955656
    24  C    6.146707   7.069820   8.105510   6.672302   7.462496
    25  H    6.996354   7.961961   8.971677   7.619219   8.415287
    26  C    6.557333   7.321605   8.398371   6.704560   7.369841
    27  C    5.829987   6.458658   7.539841   5.738166   6.343964
    28  H    6.497197   6.978875   8.048036   6.119953   6.586086
    29  C    4.461204   5.131479   6.203836   4.534851   5.256661
    30  H    4.152385   4.634878   5.680278   3.953711   4.599009
    31  H    7.633284   8.359464   9.441375   7.671635   8.270865
                   16         17         18         19         20
    16  C    0.000000
    17  H    1.084836   0.000000
    18  C    1.424681   2.236615   0.000000
    19  F    4.659339   5.707002   3.674394   0.000000
    20  F    4.401211   5.361199   3.392438   2.286774   0.000000
    21  C    3.154098   3.036072   2.531769   5.656848   5.162280
    22  C    4.369400   4.188807   3.694322   6.532397   5.708553
    23  H    4.816815   4.823674   3.931416   6.301240   5.245432
    24  C    5.306881   4.875839   4.878974   7.892338   7.078478
    25  H    6.276891   5.866316   5.792524   8.637160   7.661750
    26  C    5.318530   4.670518   5.188458   8.462351   7.875501
    27  C    4.384876   3.679616   4.444795   7.816998   7.499538
    28  H    4.849989   4.028544   5.134472   8.512929   8.349326
    29  C    3.181437   2.697044   3.095665   6.440830   6.222990
    30  H    2.730044   2.284495   2.888378   6.131774   6.216715
    31  H    6.296392   5.562794   6.254857   9.551077   8.943622
                   21         22         23         24         25
    21  C    0.000000
    22  C    1.406819   0.000000
    23  H    2.161535   1.091354   0.000000
    24  C    2.431630   1.391569   2.155785   0.000000
    25  H    3.415949   2.150514   2.476301   1.090543   0.000000
    26  C    2.812960   2.417367   3.406004   1.395895   2.160075
    27  C    2.430942   2.786725   3.877948   2.412337   3.402900
    28  H    3.415131   3.877197   4.968462   3.402819   4.307147
    29  C    1.406200   2.417536   3.406791   2.787945   3.878455
    30  H    2.162988   3.407550   4.309982   3.878111   4.968645
    31  H    3.903326   3.405619   4.306217   2.160662   2.491679
                   26         27         28         29         30
    26  C    0.000000
    27  C    1.395238   0.000000
    28  H    2.159244   1.090554   0.000000
    29  C    2.418047   1.392192   2.150690   0.000000
    30  H    3.404204   2.153644   2.472766   1.090689   0.000000
    31  H    1.090367   2.160130   2.490752   3.406231   4.303761
                   31
    31  H    0.000000
 Symmetry turned off by external request.
 Stoichiometry    C15H11BF2N2
 Framework group  C1[X(C15H11BF2N2)]
 Deg. of freedom    87
 Full point group                 C1      NOp   1
 Rotational constants (GHZ):           0.5797333           0.2799164           0.2047989
 Leave Link  202 at Tue Feb  1 12:18:19 2022, MaxMem= 11408506880 cpu:               0.1 elap:               0.0
 (Enter /lustre1/prg/gaussian/bin/G16_C01_Linda9.2_SSE4/g16/l301.exe)
 Standard basis: CC-pVDZ (5D, 7F)
 Ernie: Thresh=  0.10000D-02 Tol=  0.10000D-05 Strict=F.
 Ernie:  40 primitive shells out of 495 were deleted.
   335 basis functions,   737 primitive gaussians,   355 cartesian basis functions
    69 alpha electrons       69 beta electrons
       nuclear repulsion energy      1466.6538474170 Hartrees.
 IExCor= 4336 DFT=T Ex+Corr=M062X ExCW=0 ScaHFX=  0.540000
 ScaDFX=  1.000000  1.000000  1.000000  1.000000 ScalE2=  1.000000  1.000000
 IRadAn=      5 IRanWt=     -1 IRanGd=            0 ICorTp=0 IEmpDi=  4
 NAtoms=   31 NActive=   31 NUniq=   31 SFac= 1.00D+00 NAtFMM=   60 NAOKFM=F Big=F
 Integral buffers will be    131072 words long.
 Regular integral format.
 Two-electron integral symmetry is turned off.
 ------------------------------------------------------------------------------
 Polarizable Continuum Model (PCM)
 =================================
 Model                : C-PCM.
 Atomic radii         : UFF (Universal Force Field).
 Polarization charges : Total charges.
 Charge compensation  : None.
 Solution method      : On-the-fly selection.
 Cavity type          : Scaled VdW (van der Waals Surface) (Alpha=1.100).
 Cavity algorithm     : GePol (No added spheres)
                        Default sphere list used, NSphG=   31.
                        Lebedev-Laikov grids with approx.  5.0 points / Ang**2.
                        Smoothing algorithm: York/Karplus (Gamma=1.0000).
                        Polarization charges: spherical gaussians, with
                                              point-specific exponents (IZeta= 3).
                        Self-potential: point-specific (ISelfS= 7).
                        Self-field    : sphere-specific E.n sum rule (ISelfD= 2).
 1st derivatives      : Analytical E(r).r(x)/FMM algorithm (CHGder, D1EAlg=3).
                        Cavity 1st derivative terms included.
 Solvent              : TetraHydroFuran, Eps=   7.425700 Eps(inf)=   1.974025
 ------------------------------------------------------------------------------
 GePol: Number of generator spheres                  =      31
 GePol: Total number of spheres                      =      31
 GePol: Number of exposed spheres                    =      31 (100.00%)
 GePol: Number of points                             =    2470
 GePol: Average weight of points                     =       0.13
 GePol: Minimum weight of points                     =   0.30D-11
 GePol: Maximum weight of points                     =    0.20577
 GePol: Number of points with low weight             =     159
 GePol: Fraction of low-weight points (<1% of avg)   =       6.44%
 GePol: Cavity surface area                          =    314.156 Ang**2
 GePol: Cavity volume                                =    345.847 Ang**3
 Leave Link  301 at Tue Feb  1 12:18:19 2022, MaxMem= 11408506880 cpu:               1.4 elap:               0.1
@@@@@@@@@@@@@@@@@@@@@@@@@@@@@@@@@@@@@@@@@@@@@@@@@@@@@@@@@@@
@    WARNING: REMOTE HOST IDENTIFICATION HAS CHANGED!     @
@@@@@@@@@@@@@@@@@@@@@@@@@@@@@@@@@@@@@@@@@@@@@@@@@@@@@@@@@@@
IT IS POSSIBLE THAT SOMEONE IS DOING SOMETHING NASTY!
Someone could be eavesdropping on you right now (man-in-the-middle attack)!
It is also possible that a host key has just been changed.
The fingerprint for the ECDSA key sent by the remote host is
SHA256:N43ah8af8VNqDF2lHgVMjP2JK1NDC1vwP/Ra+eBXg5k.
Please contact your system administrator.
Add correct host key in /lustre2/home/toliste/.ssh/known_hosts to get rid of this message.
Offending ECDSA key in /lustre2/home/toliste/.ssh/known_hosts:164
Password authentication is disabled to avoid man-in-the-middle attacks.
Keyboard-interactive authentication is disabled to avoid man-in-the-middle attacks.
@@@@@@@@@@@@@@@@@@@@@@@@@@@@@@@@@@@@@@@@@@@@@@@@@@@@@@@@@@@
@    WARNING: REMOTE HOST IDENTIFICATION HAS CHANGED!     @
@@@@@@@@@@@@@@@@@@@@@@@@@@@@@@@@@@@@@@@@@@@@@@@@@@@@@@@@@@@
IT IS POSSIBLE THAT SOMEONE IS DOING SOMETHING NASTY!
Someone could be eavesdropping on you right now (man-in-the-middle attack)!
It is also possible that a host key has just been changed.
The fingerprint for the ECDSA key sent by the remote host is
SHA256:KcS59WlUASHXOfw5WL97uT5nbKRrO4/qfWWqcng9/UU.
Please contact your system administrator.
Add correct host key in /lustre2/home/toliste/.ssh/known_hosts to get rid of this message.
Offending ECDSA key in /lustre2/home/toliste/.ssh/known_hosts:166
Password authentication is disabled to avoid man-in-the-middle attacks.
Keyboard-interactive authentication is disabled to avoid man-in-the-middle attacks.
@@@@@@@@@@@@@@@@@@@@@@@@@@@@@@@@@@@@@@@@@@@@@@@@@@@@@@@@@@@
@    WARNING: REMOTE HOST IDENTIFICATION HAS CHANGED!     @
@@@@@@@@@@@@@@@@@@@@@@@@@@@@@@@@@@@@@@@@@@@@@@@@@@@@@@@@@@@
IT IS POSSIBLE THAT SOMEONE IS DOING SOMETHING NASTY!
Someone could be eavesdropping on you right now (man-in-the-middle attack)!
It is also possible that a host key has just been changed.
The fingerprint for the ECDSA key sent by the remote host is
SHA256:w47BzL7Br10MG7LcGXFDMpcSf8tCn7Syp3DRQZrhpJY.
Please contact your system administrator.
Add correct host key in /lustre2/home/toliste/.ssh/known_hosts to get rid of this message.
@@@@@@@@@@@@@@@@@@@@@@@@@@@@@@@@@@@@@@@@@@@@@@@@@@@@@@@@@@@
Offending ECDSA key in /lustre2/home/toliste/.ssh/known_hosts:167
@    WARNING: REMOTE HOST IDENTIFICATION HAS CHANGED!     @
Password authentication is disabled to avoid man-in-the-middle attacks.
@@@@@@@@@@@@@@@@@@@@@@@@@@@@@@@@@@@@@@@@@@@@@@@@@@@@@@@@@@@
Keyboard-interactive authentication is disabled to avoid man-in-the-middle attacks.
IT IS POSSIBLE THAT SOMEONE IS DOING SOMETHING NASTY!
Someone could be eavesdropping on you right now (man-in-the-middle attack)!
It is also possible that a host key has just been changed.
The fingerprint for the ECDSA key sent by the remote host is
SHA256:DiAgtKRVUaITVwFAw0waxo5ty4BW8wXXc58wY1IEYO0.
Please contact your system administrator.
Add correct host key in /lustre2/home/toliste/.ssh/known_hosts to get rid of this message.
Offending ECDSA key in /lustre2/home/toliste/.ssh/known_hosts:124
Password authentication is disabled to avoid man-in-the-middle attacks.
Keyboard-interactive authentication is disabled to avoid man-in-the-middle attacks.
@@@@@@@@@@@@@@@@@@@@@@@@@@@@@@@@@@@@@@@@@@@@@@@@@@@@@@@@@@@
@    WARNING: REMOTE HOST IDENTIFICATION HAS CHANGED!     @
@@@@@@@@@@@@@@@@@@@@@@@@@@@@@@@@@@@@@@@@@@@@@@@@@@@@@@@@@@@
IT IS POSSIBLE THAT SOMEONE IS DOING SOMETHING NASTY!
Someone could be eavesdropping on you right now (man-in-the-middle attack)!
It is also possible that a host key has just been changed.
The fingerprint for the ECDSA key sent by the remote host is
SHA256:uE7MdncIxK5D5AC+zy4PS2mfKFZ3SBKlbGmfEnolVjc.
Please contact your system administrator.
Add correct host key in /lustre2/home/toliste/.ssh/known_hosts to get rid of this message.
Offending ECDSA key in /lustre2/home/toliste/.ssh/known_hosts:165
Password authentication is disabled to avoid man-in-the-middle attacks.
Keyboard-interactive authentication is disabled to avoid man-in-the-middle attacks.
@@@@@@@@@@@@@@@@@@@@@@@@@@@@@@@@@@@@@@@@@@@@@@@@@@@@@@@@@@@
@    WARNING: REMOTE HOST IDENTIFICATION HAS CHANGED!     @
@@@@@@@@@@@@@@@@@@@@@@@@@@@@@@@@@@@@@@@@@@@@@@@@@@@@@@@@@@@
IT IS POSSIBLE THAT SOMEONE IS DOING SOMETHING NASTY!
Someone could be eavesdropping on you right now (man-in-the-middle attack)!
It is also possible that a host key has just been changed.
The fingerprint for the ECDSA key sent by the remote host is
SHA256:7L/dezCfu+bz1bApraWEPjINUDE+ofewWmS0BUZJewM.
Please contact your system administrator.
Add correct host key in /lustre2/home/toliste/.ssh/known_hosts to get rid of this message.
Offending ECDSA key in /lustre2/home/toliste/.ssh/known_hosts:132
Password authentication is disabled to avoid man-in-the-middle attacks.
Keyboard-interactive authentication is disabled to avoid man-in-the-middle attacks.
@@@@@@@@@@@@@@@@@@@@@@@@@@@@@@@@@@@@@@@@@@@@@@@@@@@@@@@@@@@
@    WARNING: REMOTE HOST IDENTIFICATION HAS CHANGED!     @
@@@@@@@@@@@@@@@@@@@@@@@@@@@@@@@@@@@@@@@@@@@@@@@@@@@@@@@@@@@
IT IS POSSIBLE THAT SOMEONE IS DOING SOMETHING NASTY!
Someone could be eavesdropping on you right now (man-in-the-middle attack)!
It is also possible that a host key has just been changed.
The fingerprint for the ECDSA key sent by the remote host is
SHA256:VMtw4VFat8/Pr5ep2xcHIPhMBsuBn8epkhJ5EOBAPYI.
Please contact your system administrator.
Add correct host key in /lustre2/home/toliste/.ssh/known_hosts to get rid of this message.
Offending ECDSA key in /lustre2/home/toliste/.ssh/known_hosts:123
Password authentication is disabled to avoid man-in-the-middle attacks.
Keyboard-interactive authentication is disabled to avoid man-in-the-middle attacks.
 (Enter /lustre1/prg/gaussian/bin/G16_C01_Linda9.2_SSE4/g16/linda-exe/l302.exel)
 NPDir=0 NMtPBC=     1 NCelOv=     1 NCel=       1 NClECP=     1 NCelD=      1
         NCelK=      1 NCelE2=     1 NClLst=     1 CellRange=     0.0.
 One-electron integrals computed using PRISM.
 NBasis=   335 RedAO= T EigKep=  2.82D-04  NBF=   335
 NBsUse=   335 1.00D-06 EigRej= -1.00D+00 NBFU=   335
 Precomputing XC quadrature grid using
 IXCGrd= 4 IRadAn=           5 IRanWt=          -1 IRanGd=           0 AccXCQ= 0.00D+00.
 Generated NRdTot=       0 NPtTot=           0 NUsed=           0 NTot=          32
 NSgBfM=   354   354   354   354   354 MxSgAt=    31 MxSgA2=    31.
 Leave Link  302 at Tue Feb  1 12:18:23 2022, MaxMem= 11408506880 cpu:              18.1 elap:               1.6
 (Enter /lustre1/prg/gaussian/bin/G16_C01_Linda9.2_SSE4/g16/l303.exe)
 DipDrv:  MaxL=1.
 Leave Link  303 at Tue Feb  1 12:18:23 2022, MaxMem= 11408506880 cpu:               1.4 elap:               0.2
 (Enter /lustre1/prg/gaussian/bin/G16_C01_Linda9.2_SSE4/g16/l308.exe)
 Leave Link  308 at Tue Feb  1 12:18:24 2022, MaxMem= 11408506880 cpu:               2.3 elap:               0.4
@@@@@@@@@@@@@@@@@@@@@@@@@@@@@@@@@@@@@@@@@@@@@@@@@@@@@@@@@@@
@    WARNING: REMOTE HOST IDENTIFICATION HAS CHANGED!     @
@@@@@@@@@@@@@@@@@@@@@@@@@@@@@@@@@@@@@@@@@@@@@@@@@@@@@@@@@@@
IT IS POSSIBLE THAT SOMEONE IS DOING SOMETHING NASTY!
Someone could be eavesdropping on you right now (man-in-the-middle attack)!
It is also possible that a host key has just been changed.
The fingerprint for the ECDSA key sent by the remote host is
SHA256:KcS59WlUASHXOfw5WL97uT5nbKRrO4/qfWWqcng9/UU.
Please contact your system administrator.
Add correct host key in /lustre2/home/toliste/.ssh/known_hosts to get rid of this message.
Offending ECDSA key in /lustre2/home/toliste/.ssh/known_hosts:166
Password authentication is disabled to avoid man-in-the-middle attacks.
Keyboard-interactive authentication is disabled to avoid man-in-the-middle attacks.
@@@@@@@@@@@@@@@@@@@@@@@@@@@@@@@@@@@@@@@@@@@@@@@@@@@@@@@@@@@
@    WARNING: REMOTE HOST IDENTIFICATION HAS CHANGED!     @
@@@@@@@@@@@@@@@@@@@@@@@@@@@@@@@@@@@@@@@@@@@@@@@@@@@@@@@@@@@
IT IS POSSIBLE THAT SOMEONE IS DOING SOMETHING NASTY!
Someone could be eavesdropping on you right now (man-in-the-middle attack)!
It is also possible that a host key has just been changed.
The fingerprint for the ECDSA key sent by the remote host is
SHA256:w47BzL7Br10MG7LcGXFDMpcSf8tCn7Syp3DRQZrhpJY.
Please contact your system administrator.
Add correct host key in /lustre2/home/toliste/.ssh/known_hosts to get rid of this message.
Offending ECDSA key in /lustre2/home/toliste/.ssh/known_hosts:167
Password authentication is disabled to avoid man-in-the-middle attacks.
Keyboard-interactive authentication is disabled to avoid man-in-the-middle attacks.
@@@@@@@@@@@@@@@@@@@@@@@@@@@@@@@@@@@@@@@@@@@@@@@@@@@@@@@@@@@
@    WARNING: REMOTE HOST IDENTIFICATION HAS CHANGED!     @
@@@@@@@@@@@@@@@@@@@@@@@@@@@@@@@@@@@@@@@@@@@@@@@@@@@@@@@@@@@
IT IS POSSIBLE THAT SOMEONE IS DOING SOMETHING NASTY!
Someone could be eavesdropping on you right now (man-in-the-middle attack)!
It is also possible that a host key has just been changed.
The fingerprint for the ECDSA key sent by the remote host is
SHA256:uE7MdncIxK5D5AC+zy4PS2mfKFZ3SBKlbGmfEnolVjc.
Please contact your system administrator.
Add correct host key in /lustre2/home/toliste/.ssh/known_hosts to get rid of this message.
Offending ECDSA key in /lustre2/home/toliste/.ssh/known_hosts:165
Password authentication is disabled to avoid man-in-the-middle attacks.
Keyboard-interactive authentication is disabled to avoid man-in-the-middle attacks.
@@@@@@@@@@@@@@@@@@@@@@@@@@@@@@@@@@@@@@@@@@@@@@@@@@@@@@@@@@@
@    WARNING: REMOTE HOST IDENTIFICATION HAS CHANGED!     @
@@@@@@@@@@@@@@@@@@@@@@@@@@@@@@@@@@@@@@@@@@@@@@@@@@@@@@@@@@@
IT IS POSSIBLE THAT SOMEONE IS DOING SOMETHING NASTY!
Someone could be eavesdropping on you right now (man-in-the-middle attack)!
It is also possible that a host key has just been changed.
The fingerprint for the ECDSA key sent by the remote host is
SHA256:VMtw4VFat8/Pr5ep2xcHIPhMBsuBn8epkhJ5EOBAPYI.
Please contact your system administrator.
Add correct host key in /lustre2/home/toliste/.ssh/known_hosts to get rid of this message.
Offending ECDSA key in /lustre2/home/toliste/.ssh/known_hosts:123
Password authentication is disabled to avoid man-in-the-middle attacks.
Keyboard-interactive authentication is disabled to avoid man-in-the-middle attacks.
@@@@@@@@@@@@@@@@@@@@@@@@@@@@@@@@@@@@@@@@@@@@@@@@@@@@@@@@@@@
@    WARNING: REMOTE HOST IDENTIFICATION HAS CHANGED!     @
@@@@@@@@@@@@@@@@@@@@@@@@@@@@@@@@@@@@@@@@@@@@@@@@@@@@@@@@@@@
IT IS POSSIBLE THAT SOMEONE IS DOING SOMETHING NASTY!
Someone could be eavesdropping on you right now (man-in-the-middle attack)!
It is also possible that a host key has just been changed.
The fingerprint for the ECDSA key sent by the remote host is
SHA256:N43ah8af8VNqDF2lHgVMjP2JK1NDC1vwP/Ra+eBXg5k.
Please contact your system administrator.
Add correct host key in /lustre2/home/toliste/.ssh/known_hosts to get rid of this message.
Offending ECDSA key in /lustre2/home/toliste/.ssh/known_hosts:164
Password authentication is disabled to avoid man-in-the-middle attacks.
Keyboard-interactive authentication is disabled to avoid man-in-the-middle attacks.
@@@@@@@@@@@@@@@@@@@@@@@@@@@@@@@@@@@@@@@@@@@@@@@@@@@@@@@@@@@
@    WARNING: REMOTE HOST IDENTIFICATION HAS CHANGED!     @
@@@@@@@@@@@@@@@@@@@@@@@@@@@@@@@@@@@@@@@@@@@@@@@@@@@@@@@@@@@
IT IS POSSIBLE THAT SOMEONE IS DOING SOMETHING NASTY!
Someone could be eavesdropping on you right now (man-in-the-middle attack)!
It is also possible that a host key has just been changed.
The fingerprint for the ECDSA key sent by the remote host is
SHA256:7L/dezCfu+bz1bApraWEPjINUDE+ofewWmS0BUZJewM.
Please contact your system administrator.
Add correct host key in /lustre2/home/toliste/.ssh/known_hosts to get rid of this message.
Offending ECDSA key in /lustre2/home/toliste/.ssh/known_hosts:132
Password authentication is disabled to avoid man-in-the-middle attacks.
Keyboard-interactive authentication is disabled to avoid man-in-the-middle attacks.
@@@@@@@@@@@@@@@@@@@@@@@@@@@@@@@@@@@@@@@@@@@@@@@@@@@@@@@@@@@
@    WARNING: REMOTE HOST IDENTIFICATION HAS CHANGED!     @
@@@@@@@@@@@@@@@@@@@@@@@@@@@@@@@@@@@@@@@@@@@@@@@@@@@@@@@@@@@
IT IS POSSIBLE THAT SOMEONE IS DOING SOMETHING NASTY!
Someone could be eavesdropping on you right now (man-in-the-middle attack)!
It is also possible that a host key has just been changed.
The fingerprint for the ECDSA key sent by the remote host is
SHA256:DiAgtKRVUaITVwFAw0waxo5ty4BW8wXXc58wY1IEYO0.
Please contact your system administrator.
Add correct host key in /lustre2/home/toliste/.ssh/known_hosts to get rid of this message.
Offending ECDSA key in /lustre2/home/toliste/.ssh/known_hosts:124
Password authentication is disabled to avoid man-in-the-middle attacks.
Keyboard-interactive authentication is disabled to avoid man-in-the-middle attacks.
 (Enter /lustre1/prg/gaussian/bin/G16_C01_Linda9.2_SSE4/g16/linda-exe/l401.exel)
 ExpMin= 9.54D-02 ExpMax= 1.47D+04 ExpMxC= 5.03D+02 IAcc=3 IRadAn=         5 AccDes= 0.00D+00
 Harris functional with IExCor= 1009 and IRadAn=       5 diagonalized for initial guess.
 HarFok:  IExCor= 1009 AccDes= 0.00D+00 IRadAn=         5 IDoV= 1 UseB2=F ITyADJ=14
 ICtDFT=  3500011 ScaDFX=  1.000000  1.000000  1.000000  1.000000
 FoFCou: FMM=F IPFlag=           0 FMFlag=      100000 FMFlg1=           0
         NFxFlg=           0 DoJE=T BraDBF=F KetDBF=T FulRan=T
         wScrn=  0.000000 ICntrl=       500 IOpCl=  0 I1Cent=   200000004 NGrid=           0
         NMat0=    1 NMatS0=      1 NMatT0=    0 NMatD0=    1 NMtDS0=    0 NMtDT0=    0
 Symmetry not used in FoFCou.
 Harris En= -911.573640148926    
 JPrj=0 DoOrth=F DoCkMO=F.
 Leave Link  401 at Tue Feb  1 12:18:30 2022, MaxMem= 11408506880 cpu:              37.2 elap:               3.3
@@@@@@@@@@@@@@@@@@@@@@@@@@@@@@@@@@@@@@@@@@@@@@@@@@@@@@@@@@@
@    WARNING: REMOTE HOST IDENTIFICATION HAS CHANGED!     @
@@@@@@@@@@@@@@@@@@@@@@@@@@@@@@@@@@@@@@@@@@@@@@@@@@@@@@@@@@@
IT IS POSSIBLE THAT SOMEONE IS DOING SOMETHING NASTY!
Someone could be eavesdropping on you right now (man-in-the-middle attack)!
It is also possible that a host key has just been changed.
The fingerprint for the ECDSA key sent by the remote host is
SHA256:VMtw4VFat8/Pr5ep2xcHIPhMBsuBn8epkhJ5EOBAPYI.
Please contact your system administrator.
Add correct host key in /lustre2/home/toliste/.ssh/known_hosts to get rid of this message.
Offending ECDSA key in /lustre2/home/toliste/.ssh/known_hosts:123
Password authentication is disabled to avoid man-in-the-middle attacks.
Keyboard-interactive authentication is disabled to avoid man-in-the-middle attacks.
@@@@@@@@@@@@@@@@@@@@@@@@@@@@@@@@@@@@@@@@@@@@@@@@@@@@@@@@@@@
@    WARNING: REMOTE HOST IDENTIFICATION HAS CHANGED!     @
@@@@@@@@@@@@@@@@@@@@@@@@@@@@@@@@@@@@@@@@@@@@@@@@@@@@@@@@@@@
IT IS POSSIBLE THAT SOMEONE IS DOING SOMETHING NASTY!
Someone could be eavesdropping on you right now (man-in-the-middle attack)!
It is also possible that a host key has just been changed.
The fingerprint for the ECDSA key sent by the remote host is
SHA256:7L/dezCfu+bz1bApraWEPjINUDE+ofewWmS0BUZJewM.
Please contact your system administrator.
Add correct host key in /lustre2/home/toliste/.ssh/known_hosts to get rid of this message.
Offending ECDSA key in /lustre2/home/toliste/.ssh/known_hosts:132
Password authentication is disabled to avoid man-in-the-middle attacks.
Keyboard-interactive authentication is disabled to avoid man-in-the-middle attacks.
@@@@@@@@@@@@@@@@@@@@@@@@@@@@@@@@@@@@@@@@@@@@@@@@@@@@@@@@@@@
@    WARNING: REMOTE HOST IDENTIFICATION HAS CHANGED!     @
@@@@@@@@@@@@@@@@@@@@@@@@@@@@@@@@@@@@@@@@@@@@@@@@@@@@@@@@@@@
IT IS POSSIBLE THAT SOMEONE IS DOING SOMETHING NASTY!
Someone could be eavesdropping on you right now (man-in-the-middle attack)!
It is also possible that a host key has just been changed.
The fingerprint for the ECDSA key sent by the remote host is
SHA256:KcS59WlUASHXOfw5WL97uT5nbKRrO4/qfWWqcng9/UU.
Please contact your system administrator.
Add correct host key in /lustre2/home/toliste/.ssh/known_hosts to get rid of this message.
Offending ECDSA key in /lustre2/home/toliste/.ssh/known_hosts:166
Password authentication is disabled to avoid man-in-the-middle attacks.
Keyboard-interactive authentication is disabled to avoid man-in-the-middle attacks.
@@@@@@@@@@@@@@@@@@@@@@@@@@@@@@@@@@@@@@@@@@@@@@@@@@@@@@@@@@@
@    WARNING: REMOTE HOST IDENTIFICATION HAS CHANGED!     @
@@@@@@@@@@@@@@@@@@@@@@@@@@@@@@@@@@@@@@@@@@@@@@@@@@@@@@@@@@@
IT IS POSSIBLE THAT SOMEONE IS DOING SOMETHING NASTY!
Someone could be eavesdropping on you right now (man-in-the-middle attack)!
It is also possible that a host key has just been changed.
The fingerprint for the ECDSA key sent by the remote host is
SHA256:uE7MdncIxK5D5AC+zy4PS2mfKFZ3SBKlbGmfEnolVjc.
Please contact your system administrator.
Add correct host key in /lustre2/home/toliste/.ssh/known_hosts to get rid of this message.
Offending ECDSA key in /lustre2/home/toliste/.ssh/known_hosts:165
Password authentication is disabled to avoid man-in-the-middle attacks.
Keyboard-interactive authentication is disabled to avoid man-in-the-middle attacks.
@@@@@@@@@@@@@@@@@@@@@@@@@@@@@@@@@@@@@@@@@@@@@@@@@@@@@@@@@@@
@    WARNING: REMOTE HOST IDENTIFICATION HAS CHANGED!     @
@@@@@@@@@@@@@@@@@@@@@@@@@@@@@@@@@@@@@@@@@@@@@@@@@@@@@@@@@@@
IT IS POSSIBLE THAT SOMEONE IS DOING SOMETHING NASTY!
Someone could be eavesdropping on you right now (man-in-the-middle attack)!
It is also possible that a host key has just been changed.
The fingerprint for the ECDSA key sent by the remote host is
SHA256:DiAgtKRVUaITVwFAw0waxo5ty4BW8wXXc58wY1IEYO0.
Please contact your system administrator.
Add correct host key in /lustre2/home/toliste/.ssh/known_hosts to get rid of this message.
Offending ECDSA key in /lustre2/home/toliste/.ssh/known_hosts:124
Password authentication is disabled to avoid man-in-the-middle attacks.
Keyboard-interactive authentication is disabled to avoid man-in-the-middle attacks.
@@@@@@@@@@@@@@@@@@@@@@@@@@@@@@@@@@@@@@@@@@@@@@@@@@@@@@@@@@@
@    WARNING: REMOTE HOST IDENTIFICATION HAS CHANGED!     @
@@@@@@@@@@@@@@@@@@@@@@@@@@@@@@@@@@@@@@@@@@@@@@@@@@@@@@@@@@@
IT IS POSSIBLE THAT SOMEONE IS DOING SOMETHING NASTY!
Someone could be eavesdropping on you right now (man-in-the-middle attack)!
It is also possible that a host key has just been changed.
The fingerprint for the ECDSA key sent by the remote host is
SHA256:w47BzL7Br10MG7LcGXFDMpcSf8tCn7Syp3DRQZrhpJY.
Please contact your system administrator.
Add correct host key in /lustre2/home/toliste/.ssh/known_hosts to get rid of this message.
Offending ECDSA key in /lustre2/home/toliste/.ssh/known_hosts:167
Password authentication is disabled to avoid man-in-the-middle attacks.
Keyboard-interactive authentication is disabled to avoid man-in-the-middle attacks.
@@@@@@@@@@@@@@@@@@@@@@@@@@@@@@@@@@@@@@@@@@@@@@@@@@@@@@@@@@@
@    WARNING: REMOTE HOST IDENTIFICATION HAS CHANGED!     @
@@@@@@@@@@@@@@@@@@@@@@@@@@@@@@@@@@@@@@@@@@@@@@@@@@@@@@@@@@@
IT IS POSSIBLE THAT SOMEONE IS DOING SOMETHING NASTY!
Someone could be eavesdropping on you right now (man-in-the-middle attack)!
It is also possible that a host key has just been changed.
The fingerprint for the ECDSA key sent by the remote host is
SHA256:N43ah8af8VNqDF2lHgVMjP2JK1NDC1vwP/Ra+eBXg5k.
Please contact your system administrator.
Add correct host key in /lustre2/home/toliste/.ssh/known_hosts to get rid of this message.
Offending ECDSA key in /lustre2/home/toliste/.ssh/known_hosts:164
Password authentication is disabled to avoid man-in-the-middle attacks.
Keyboard-interactive authentication is disabled to avoid man-in-the-middle attacks.
 (Enter /lustre1/prg/gaussian/bin/G16_C01_Linda9.2_SSE4/g16/linda-exe/l502.exel)
 Two-electron integral symmetry not used.
 Closed shell SCF:
 Using DIIS extrapolation, IDIIS=  1040.
 NGot= 11408506880 LenX= 11408246955 LenY= 11408120489
 Requested convergence on RMS density matrix=1.00D-08 within 128 cycles.
 Requested convergence on MAX density matrix=1.00D-06.
 Requested convergence on             energy=1.00D-06.
 No special actions if energy rises.
 Fock matrices will be formed incrementally for  20 cycles.

 Cycle   1  Pass 1  IDiag  1:
 FoFJK:  IHMeth= 1 ICntrl=       0 DoSepK=F KAlg= 0 I1Cent=           0 FoldK=F
 IRaf= 870000000 NMat=       1 IRICut=       1 DoRegI=T DoRafI=F ISym2E= 0 IDoP0=0 IntGTp=1.
 FoFCou: FMM=F IPFlag=           0 FMFlag=      100000 FMFlg1=           0
         NFxFlg=           0 DoJE=F BraDBF=F KetDBF=F FulRan=T
         wScrn=  0.000000 ICntrl=         0 IOpCl=  0 I1Cent=           0 NGrid=           0
         NMat0=    1 NMatS0=      1 NMatT0=    0 NMatD0=    1 NMtDS0=    0 NMtDT0=    0
 Symmetry not used in FoFCou.
 Inv3:  Mode=1 IEnd=    18302700.
 Iteration    1 A*A^-1 deviation from unit magnitude is 1.09D-14 for    498.
 Iteration    1 A*A^-1 deviation from orthogonality  is 4.92D-15 for   1427    413.
 Iteration    1 A^-1*A deviation from unit magnitude is 8.66D-15 for    498.
 Iteration    1 A^-1*A deviation from orthogonality  is 1.91D-15 for   2329   1277.
 E= -911.876321500503    
 DIIS: error= 2.00D-02 at cycle   1 NSaved=   1.
 NSaved= 1 IEnMin= 1 EnMin= -911.876321500503     IErMin= 1 ErrMin= 2.00D-02
 ErrMax= 2.00D-02  0.00D+00 EMaxC= 1.00D-01 BMatC= 3.30D-01 BMatP= 3.30D-01
 IDIUse=3 WtCom= 8.00D-01 WtEn= 2.00D-01
 Coeff-Com:  0.100D+01
 Coeff-En:   0.100D+01
 Coeff:      0.100D+01
 Gap=     0.173 Goal=   None    Shift=    0.000
 GapD=    0.173 DampG=1.000 DampE=0.500 DampFc=0.5000 IDamp=-1.
 Damping current iteration by 5.00D-01
 RMSDP=3.54D-03 MaxDP=9.82D-02              OVMax= 1.49D-01

 Cycle   2  Pass 1  IDiag  1:
 RMSU=  1.70D-03    CP:  9.75D-01
 E= -912.034437311469     Delta-E=       -0.158115810966 Rises=F Damp=T
 DIIS: error= 5.94D-03 at cycle   2 NSaved=   2.
 NSaved= 2 IEnMin= 2 EnMin= -912.034437311469     IErMin= 2 ErrMin= 5.94D-03
 ErrMax= 5.94D-03  0.00D+00 EMaxC= 1.00D-01 BMatC= 2.86D-02 BMatP= 3.30D-01
 IDIUse=3 WtCom= 9.41D-01 WtEn= 5.94D-02
 Coeff-Com: -0.989D-01 0.110D+01
 Coeff-En:   0.000D+00 0.100D+01
 Coeff:     -0.930D-01 0.109D+01
 Gap=     0.183 Goal=   None    Shift=    0.000
 RMSDP=1.23D-03 MaxDP=5.68D-02 DE=-1.58D-01 OVMax= 9.22D-02

 Cycle   3  Pass 1  IDiag  1:
 RMSU=  1.02D-03    CP:  9.56D-01  1.35D+00
 E= -912.176256374433     Delta-E=       -0.141819062964 Rises=F Damp=F
 DIIS: error= 5.27D-03 at cycle   3 NSaved=   3.
 NSaved= 3 IEnMin= 3 EnMin= -912.176256374433     IErMin= 3 ErrMin= 5.27D-03
 ErrMax= 5.27D-03  0.00D+00 EMaxC= 1.00D-01 BMatC= 1.38D-02 BMatP= 2.86D-02
 IDIUse=3 WtCom= 9.47D-01 WtEn= 5.27D-02
 Coeff-Com: -0.109D+00 0.473D+00 0.636D+00
 Coeff-En:   0.000D+00 0.000D+00 0.100D+01
 Coeff:     -0.104D+00 0.448D+00 0.656D+00
 Gap=     0.172 Goal=   None    Shift=    0.000
 RMSDP=4.51D-04 MaxDP=2.14D-02 DE=-1.42D-01 OVMax= 4.69D-02

 Cycle   4  Pass 1  IDiag  1:
 RMSU=  3.25D-04    CP:  9.58D-01  1.40D+00  7.02D-01
 E= -912.187166186361     Delta-E=       -0.010909811927 Rises=F Damp=F
 DIIS: error= 3.13D-03 at cycle   4 NSaved=   4.
 NSaved= 4 IEnMin= 4 EnMin= -912.187166186361     IErMin= 4 ErrMin= 3.13D-03
 ErrMax= 3.13D-03  0.00D+00 EMaxC= 1.00D-01 BMatC= 2.65D-03 BMatP= 1.38D-02
 IDIUse=3 WtCom= 9.69D-01 WtEn= 3.13D-02
 Coeff-Com: -0.365D-01 0.975D-01 0.343D+00 0.596D+00
 Coeff-En:   0.000D+00 0.000D+00 0.155D+00 0.845D+00
 Coeff:     -0.354D-01 0.944D-01 0.337D+00 0.604D+00
 Gap=     0.175 Goal=   None    Shift=    0.000
 RMSDP=1.56D-04 MaxDP=7.99D-03 DE=-1.09D-02 OVMax= 1.88D-02

 Cycle   5  Pass 1  IDiag  1:
 RMSU=  6.60D-05    CP:  9.57D-01  1.40D+00  7.87D-01  6.57D-01
 E= -912.189788220394     Delta-E=       -0.002622034033 Rises=F Damp=F
 DIIS: error= 3.15D-04 at cycle   5 NSaved=   5.
 NSaved= 5 IEnMin= 5 EnMin= -912.189788220394     IErMin= 5 ErrMin= 3.15D-04
 ErrMax= 3.15D-04  0.00D+00 EMaxC= 1.00D-01 BMatC= 9.24D-05 BMatP= 2.65D-03
 IDIUse=3 WtCom= 9.97D-01 WtEn= 3.15D-03
 Coeff-Com: -0.848D-02 0.134D-01 0.102D+00 0.252D+00 0.641D+00
 Coeff-En:   0.000D+00 0.000D+00 0.000D+00 0.000D+00 0.100D+01
 Coeff:     -0.845D-02 0.134D-01 0.102D+00 0.251D+00 0.642D+00
 Gap=     0.175 Goal=   None    Shift=    0.000
 RMSDP=2.88D-05 MaxDP=1.85D-03 DE=-2.62D-03 OVMax= 3.05D-03

 Cycle   6  Pass 1  IDiag  1:
 RMSU=  1.92D-05    CP:  9.57D-01  1.40D+00  7.90D-01  6.94D-01  7.45D-01
 E= -912.189872208297     Delta-E=       -0.000083987903 Rises=F Damp=F
 DIIS: error= 7.27D-05 at cycle   6 NSaved=   6.
 NSaved= 6 IEnMin= 6 EnMin= -912.189872208297     IErMin= 6 ErrMin= 7.27D-05
 ErrMax= 7.27D-05  0.00D+00 EMaxC= 1.00D-01 BMatC= 5.40D-06 BMatP= 9.24D-05
 IDIUse=1 WtCom= 1.00D+00 WtEn= 0.00D+00
 Coeff-Com: -0.141D-02 0.121D-03 0.208D-01 0.655D-01 0.258D+00 0.657D+00
 Coeff:     -0.141D-02 0.121D-03 0.208D-01 0.655D-01 0.258D+00 0.657D+00
 Gap=     0.175 Goal=   None    Shift=    0.000
 RMSDP=7.38D-06 MaxDP=3.06D-04 DE=-8.40D-05 OVMax= 6.18D-04

 Cycle   7  Pass 1  IDiag  1:
 RMSU=  6.08D-06    CP:  9.57D-01  1.40D+00  7.92D-01  6.95D-01  7.93D-01
                    CP:  8.70D-01
 E= -912.189877450965     Delta-E=       -0.000005242668 Rises=F Damp=F
 DIIS: error= 3.07D-05 at cycle   7 NSaved=   7.
 NSaved= 7 IEnMin= 7 EnMin= -912.189877450965     IErMin= 7 ErrMin= 3.07D-05
 ErrMax= 3.07D-05  0.00D+00 EMaxC= 1.00D-01 BMatC= 3.90D-07 BMatP= 5.40D-06
 IDIUse=1 WtCom= 1.00D+00 WtEn= 0.00D+00
 Coeff-Com:  0.418D-03-0.141D-02-0.384D-02-0.444D-02 0.212D-01 0.190D+00
 Coeff-Com:  0.798D+00
 Coeff:      0.418D-03-0.141D-02-0.384D-02-0.444D-02 0.212D-01 0.190D+00
 Coeff:      0.798D+00
 Gap=     0.175 Goal=   None    Shift=    0.000
 RMSDP=3.33D-06 MaxDP=1.36D-04 DE=-5.24D-06 OVMax= 4.28D-04

 Cycle   8  Pass 1  IDiag  1:
 RMSU=  2.43D-06    CP:  9.57D-01  1.40D+00  7.92D-01  6.98D-01  7.99D-01
                    CP:  9.68D-01  9.81D-01
 E= -912.189877886035     Delta-E=       -0.000000435070 Rises=F Damp=F
 DIIS: error= 2.59D-05 at cycle   8 NSaved=   8.
 NSaved= 8 IEnMin= 8 EnMin= -912.189877886035     IErMin= 8 ErrMin= 2.59D-05
 ErrMax= 2.59D-05  0.00D+00 EMaxC= 1.00D-01 BMatC= 1.63D-07 BMatP= 3.90D-07
 IDIUse=1 WtCom= 1.00D+00 WtEn= 0.00D+00
 Coeff-Com:  0.491D-03-0.830D-03-0.563D-02-0.136D-01-0.321D-01-0.181D-01
 Coeff-Com:  0.441D+00 0.629D+00
 Coeff:      0.491D-03-0.830D-03-0.563D-02-0.136D-01-0.321D-01-0.181D-01
 Coeff:      0.441D+00 0.629D+00
 Gap=     0.175 Goal=   None    Shift=    0.000
 RMSDP=1.47D-06 MaxDP=8.74D-05 DE=-4.35D-07 OVMax= 1.78D-04

 Cycle   9  Pass 1  IDiag  1:
 RMSU=  8.15D-07    CP:  9.57D-01  1.40D+00  7.92D-01  6.98D-01  8.07D-01
                    CP:  9.87D-01  1.09D+00  7.23D-01
 E= -912.189878074153     Delta-E=       -0.000000188118 Rises=F Damp=F
 DIIS: error= 2.44D-06 at cycle   9 NSaved=   9.
 NSaved= 9 IEnMin= 9 EnMin= -912.189878074153     IErMin= 9 ErrMin= 2.44D-06
 ErrMax= 2.44D-06  0.00D+00 EMaxC= 1.00D-01 BMatC= 4.44D-09 BMatP= 1.63D-07
 IDIUse=1 WtCom= 1.00D+00 WtEn= 0.00D+00
 Coeff-Com:  0.108D-03-0.128D-03-0.128D-02-0.345D-02-0.102D-01-0.190D-01
 Coeff-Com:  0.734D-01 0.176D+00 0.784D+00
 Coeff:      0.108D-03-0.128D-03-0.128D-02-0.345D-02-0.102D-01-0.190D-01
 Coeff:      0.734D-01 0.176D+00 0.784D+00
 Gap=     0.175 Goal=   None    Shift=    0.000
 RMSDP=3.50D-07 MaxDP=1.28D-05 DE=-1.88D-07 OVMax= 4.15D-05

 Cycle  10  Pass 1  IDiag  1:
 RMSU=  2.48D-07    CP:  9.57D-01  1.40D+00  7.92D-01  6.98D-01  8.07D-01
                    CP:  9.93D-01  1.12D+00  7.91D-01  9.82D-01
 E= -912.189878081038     Delta-E=       -0.000000006885 Rises=F Damp=F
 DIIS: error= 1.35D-06 at cycle  10 NSaved=  10.
 NSaved=10 IEnMin=10 EnMin= -912.189878081038     IErMin=10 ErrMin= 1.35D-06
 ErrMax= 1.35D-06  0.00D+00 EMaxC= 1.00D-01 BMatC= 1.03D-09 BMatP= 4.44D-09
 IDIUse=1 WtCom= 1.00D+00 WtEn= 0.00D+00
 Coeff-Com: -0.174D-04 0.502D-04 0.180D-03 0.305D-03-0.238D-03-0.623D-02
 Coeff-Com: -0.255D-01-0.165D-01 0.315D+00 0.733D+00
 Coeff:     -0.174D-04 0.502D-04 0.180D-03 0.305D-03-0.238D-03-0.623D-02
 Coeff:     -0.255D-01-0.165D-01 0.315D+00 0.733D+00
 Gap=     0.175 Goal=   None    Shift=    0.000
 RMSDP=1.39D-07 MaxDP=6.49D-06 DE=-6.88D-09 OVMax= 1.69D-05

 Cycle  11  Pass 1  IDiag  1:
 RMSU=  9.20D-08    CP:  9.57D-01  1.40D+00  7.92D-01  6.98D-01  8.08D-01
                    CP:  9.94D-01  1.12D+00  8.05D-01  1.08D+00  9.23D-01
 E= -912.189878082315     Delta-E=       -0.000000001277 Rises=F Damp=F
 DIIS: error= 4.14D-07 at cycle  11 NSaved=  11.
 NSaved=11 IEnMin=11 EnMin= -912.189878082315     IErMin=11 ErrMin= 4.14D-07
 ErrMax= 4.14D-07  0.00D+00 EMaxC= 1.00D-01 BMatC= 1.17D-10 BMatP= 1.03D-09
 IDIUse=1 WtCom= 1.00D+00 WtEn= 0.00D+00
 Coeff-Com: -0.227D-04 0.386D-04 0.253D-03 0.630D-03 0.137D-02 0.964D-04
 Coeff-Com: -0.204D-01-0.357D-01 0.199D-01 0.288D+00 0.746D+00
 Coeff:     -0.227D-04 0.386D-04 0.253D-03 0.630D-03 0.137D-02 0.964D-04
 Coeff:     -0.204D-01-0.357D-01 0.199D-01 0.288D+00 0.746D+00
 Gap=     0.175 Goal=   None    Shift=    0.000
 RMSDP=5.20D-08 MaxDP=1.75D-06 DE=-1.28D-09 OVMax= 5.68D-06

 Cycle  12  Pass 1  IDiag  1:
 RMSU=  2.98D-08    CP:  9.57D-01  1.40D+00  7.92D-01  6.98D-01  8.08D-01
                    CP:  9.95D-01  1.12D+00  8.06D-01  1.12D+00  1.03D+00
                    CP:  9.31D-01
 E= -912.189878082491     Delta-E=       -0.000000000176 Rises=F Damp=F
 DIIS: error= 9.72D-08 at cycle  12 NSaved=  12.
 NSaved=12 IEnMin=12 EnMin= -912.189878082491     IErMin=12 ErrMin= 9.72D-08
 ErrMax= 9.72D-08  0.00D+00 EMaxC= 1.00D-01 BMatC= 4.89D-12 BMatP= 1.17D-10
 IDIUse=1 WtCom= 1.00D+00 WtEn= 0.00D+00
 Coeff-Com: -0.459D-05 0.681D-05 0.491D-04 0.133D-03 0.340D-03 0.396D-03
 Coeff-Com: -0.260D-02-0.807D-02-0.983D-02 0.301D-01 0.178D+00 0.811D+00
 Coeff:     -0.459D-05 0.681D-05 0.491D-04 0.133D-03 0.340D-03 0.396D-03
 Coeff:     -0.260D-02-0.807D-02-0.983D-02 0.301D-01 0.178D+00 0.811D+00
 Gap=     0.175 Goal=   None    Shift=    0.000
 RMSDP=1.21D-08 MaxDP=3.81D-07 DE=-1.76D-10 OVMax= 2.01D-06

 Cycle  13  Pass 1  IDiag  1:
 RMSU=  9.12D-09    CP:  9.57D-01  1.40D+00  7.92D-01  6.98D-01  8.08D-01
                    CP:  9.95D-01  1.12D+00  8.05D-01  1.12D+00  1.05D+00
                    CP:  9.92D-01  1.05D+00
 E= -912.189878082465     Delta-E=        0.000000000026 Rises=F Damp=F
 DIIS: error= 4.00D-08 at cycle  13 NSaved=  13.
 NSaved=13 IEnMin=12 EnMin= -912.189878082491     IErMin=13 ErrMin= 4.00D-08
 ErrMax= 4.00D-08  0.00D+00 EMaxC= 1.00D-01 BMatC= 1.27D-12 BMatP= 4.89D-12
 IDIUse=1 WtCom= 1.00D+00 WtEn= 0.00D+00
 Coeff-Com:  0.814D-06-0.177D-05-0.105D-04-0.220D-04-0.221D-04 0.145D-03
 Coeff-Com:  0.139D-02 0.442D-03-0.700D-02-0.258D-01-0.306D-01 0.320D+00
 Coeff-Com:  0.741D+00
 Coeff:      0.814D-06-0.177D-05-0.105D-04-0.220D-04-0.221D-04 0.145D-03
 Coeff:      0.139D-02 0.442D-03-0.700D-02-0.258D-01-0.306D-01 0.320D+00
 Coeff:      0.741D+00
 Gap=     0.175 Goal=   None    Shift=    0.000
 RMSDP=5.70D-09 MaxDP=1.48D-07 DE= 2.59D-11 OVMax= 7.83D-07

 Error on total polarization charges =  0.00993
 SCF Done:  E(RM062X) =  -912.189878082     A.U. after   13 cycles
            NFock= 13  Conv=0.57D-08     -V/T= 2.0063
 KE= 9.064583008009D+02 PE=-5.063073095409D+03 EE= 1.777771069109D+03
 Leave Link  502 at Tue Feb  1 12:19:45 2022, MaxMem= 11408506880 cpu:             818.5 elap:              72.3
 (Enter /lustre1/prg/gaussian/bin/G16_C01_Linda9.2_SSE4/g16/l801.exe)
 DoSCS=F DFT=T ScalE2(SS,OS)=  1.000000  1.000000
 ExpMin= 9.54D-02 ExpMax= 1.47D+04 ExpMxC= 5.03D+02 IAcc=3 IRadAn=         5 AccDes= 0.00D+00
 HarFok:  IExCor=  205 AccDes= 0.00D+00 IRadAn=         5 IDoV=-2 UseB2=F ITyADJ=14
 ICtDFT= 12500011 ScaDFX=  1.000000  1.000000  1.000000  1.000000
 Largest valence mixing into a core orbital is  7.98D-05
 Largest core mixing into a valence orbital is  4.84D-05
 Range of M.O.s used for correlation:    21   335
 NBasis=   335 NAE=    69 NBE=    69 NFC=    20 NFV=     0
 NROrb=    315 NOA=    49 NOB=    49 NVA=   266 NVB=   266

 **** Warning!!: The largest alpha MO coefficient is  0.12627989D+02

 Leave Link  801 at Tue Feb  1 12:19:45 2022, MaxMem= 11408506880 cpu:               2.6 elap:               0.2
@@@@@@@@@@@@@@@@@@@@@@@@@@@@@@@@@@@@@@@@@@@@@@@@@@@@@@@@@@@
@    WARNING: REMOTE HOST IDENTIFICATION HAS CHANGED!     @
@@@@@@@@@@@@@@@@@@@@@@@@@@@@@@@@@@@@@@@@@@@@@@@@@@@@@@@@@@@
IT IS POSSIBLE THAT SOMEONE IS DOING SOMETHING NASTY!
Someone could be eavesdropping on you right now (man-in-the-middle attack)!
It is also possible that a host key has just been changed.
The fingerprint for the ECDSA key sent by the remote host is
SHA256:N43ah8af8VNqDF2lHgVMjP2JK1NDC1vwP/Ra+eBXg5k.
Please contact your system administrator.
Add correct host key in /lustre2/home/toliste/.ssh/known_hosts to get rid of this message.
Offending ECDSA key in /lustre2/home/toliste/.ssh/known_hosts:164
Password authentication is disabled to avoid man-in-the-middle attacks.
Keyboard-interactive authentication is disabled to avoid man-in-the-middle attacks.
@@@@@@@@@@@@@@@@@@@@@@@@@@@@@@@@@@@@@@@@@@@@@@@@@@@@@@@@@@@
@    WARNING: REMOTE HOST IDENTIFICATION HAS CHANGED!     @
@@@@@@@@@@@@@@@@@@@@@@@@@@@@@@@@@@@@@@@@@@@@@@@@@@@@@@@@@@@
IT IS POSSIBLE THAT SOMEONE IS DOING SOMETHING NASTY!
Someone could be eavesdropping on you right now (man-in-the-middle attack)!
It is also possible that a host key has just been changed.
The fingerprint for the ECDSA key sent by the remote host is
SHA256:7L/dezCfu+bz1bApraWEPjINUDE+ofewWmS0BUZJewM.
Please contact your system administrator.
Add correct host key in /lustre2/home/toliste/.ssh/known_hosts to get rid of this message.
Offending ECDSA key in /lustre2/home/toliste/.ssh/known_hosts:132
Password authentication is disabled to avoid man-in-the-middle attacks.
Keyboard-interactive authentication is disabled to avoid man-in-the-middle attacks.
@@@@@@@@@@@@@@@@@@@@@@@@@@@@@@@@@@@@@@@@@@@@@@@@@@@@@@@@@@@
@@@@@@@@@@@@@@@@@@@@@@@@@@@@@@@@@@@@@@@@@@@@@@@@@@@@@@@@@@@
@    WARNING: REMOTE HOST IDENTIFICATION HAS CHANGED!     @
@    WARNING: REMOTE HOST IDENTIFICATION HAS CHANGED!     @
@@@@@@@@@@@@@@@@@@@@@@@@@@@@@@@@@@@@@@@@@@@@@@@@@@@@@@@@@@@
@@@@@@@@@@@@@@@@@@@@@@@@@@@@@@@@@@@@@@@@@@@@@@@@@@@@@@@@@@@
IT IS POSSIBLE THAT SOMEONE IS DOING SOMETHING NASTY!
IT IS POSSIBLE THAT SOMEONE IS DOING SOMETHING NASTY!
Someone could be eavesdropping on you right now (man-in-the-middle attack)!
Someone could be eavesdropping on you right now (man-in-the-middle attack)!
It is also possible that a host key has just been changed.
It is also possible that a host key has just been changed.
The fingerprint for the ECDSA key sent by the remote host is
SHA256:DiAgtKRVUaITVwFAw0waxo5ty4BW8wXXc58wY1IEYO0.
The fingerprint for the ECDSA key sent by the remote host is
SHA256:VMtw4VFat8/Pr5ep2xcHIPhMBsuBn8epkhJ5EOBAPYI.
Please contact your system administrator.
Please contact your system administrator.
Add correct host key in /lustre2/home/toliste/.ssh/known_hosts to get rid of this message.
Add correct host key in /lustre2/home/toliste/.ssh/known_hosts to get rid of this message.
Offending ECDSA key in /lustre2/home/toliste/.ssh/known_hosts:124
Offending ECDSA key in /lustre2/home/toliste/.ssh/known_hosts:123
Password authentication is disabled to avoid man-in-the-middle attacks.
Password authentication is disabled to avoid man-in-the-middle attacks.
Keyboard-interactive authentication is disabled to avoid man-in-the-middle attacks.
Keyboard-interactive authentication is disabled to avoid man-in-the-middle attacks.
@@@@@@@@@@@@@@@@@@@@@@@@@@@@@@@@@@@@@@@@@@@@@@@@@@@@@@@@@@@
@    WARNING: REMOTE HOST IDENTIFICATION HAS CHANGED!     @
@@@@@@@@@@@@@@@@@@@@@@@@@@@@@@@@@@@@@@@@@@@@@@@@@@@@@@@@@@@
IT IS POSSIBLE THAT SOMEONE IS DOING SOMETHING NASTY!
Someone could be eavesdropping on you right now (man-in-the-middle attack)!
It is also possible that a host key has just been changed.
The fingerprint for the ECDSA key sent by the remote host is
SHA256:KcS59WlUASHXOfw5WL97uT5nbKRrO4/qfWWqcng9/UU.
Please contact your system administrator.
Add correct host key in /lustre2/home/toliste/.ssh/known_hosts to get rid of this message.
Offending ECDSA key in /lustre2/home/toliste/.ssh/known_hosts:166
Password authentication is disabled to avoid man-in-the-middle attacks.
Keyboard-interactive authentication is disabled to avoid man-in-the-middle attacks.
@@@@@@@@@@@@@@@@@@@@@@@@@@@@@@@@@@@@@@@@@@@@@@@@@@@@@@@@@@@
@    WARNING: REMOTE HOST IDENTIFICATION HAS CHANGED!     @
@@@@@@@@@@@@@@@@@@@@@@@@@@@@@@@@@@@@@@@@@@@@@@@@@@@@@@@@@@@
IT IS POSSIBLE THAT SOMEONE IS DOING SOMETHING NASTY!
Someone could be eavesdropping on you right now (man-in-the-middle attack)!
It is also possible that a host key has just been changed.
The fingerprint for the ECDSA key sent by the remote host is
SHA256:w47BzL7Br10MG7LcGXFDMpcSf8tCn7Syp3DRQZrhpJY.
Please contact your system administrator.
Add correct host key in /lustre2/home/toliste/.ssh/known_hosts to get rid of this message.
Offending ECDSA key in /lustre2/home/toliste/.ssh/known_hosts:167
Password authentication is disabled to avoid man-in-the-middle attacks.
Keyboard-interactive authentication is disabled to avoid man-in-the-middle attacks.
@@@@@@@@@@@@@@@@@@@@@@@@@@@@@@@@@@@@@@@@@@@@@@@@@@@@@@@@@@@
@    WARNING: REMOTE HOST IDENTIFICATION HAS CHANGED!     @
@@@@@@@@@@@@@@@@@@@@@@@@@@@@@@@@@@@@@@@@@@@@@@@@@@@@@@@@@@@
IT IS POSSIBLE THAT SOMEONE IS DOING SOMETHING NASTY!
Someone could be eavesdropping on you right now (man-in-the-middle attack)!
It is also possible that a host key has just been changed.
The fingerprint for the ECDSA key sent by the remote host is
SHA256:uE7MdncIxK5D5AC+zy4PS2mfKFZ3SBKlbGmfEnolVjc.
Please contact your system administrator.
Add correct host key in /lustre2/home/toliste/.ssh/known_hosts to get rid of this message.
Offending ECDSA key in /lustre2/home/toliste/.ssh/known_hosts:165
Password authentication is disabled to avoid man-in-the-middle attacks.
Keyboard-interactive authentication is disabled to avoid man-in-the-middle attacks.
 (Enter /lustre1/prg/gaussian/bin/G16_C01_Linda9.2_SSE4/g16/linda-exe/l914.exel)
 RHF ground state
 Keep R1, R2, and R3 ints in memory in canonical form, NReq=4923275813.
 FoFCou: FMM=F IPFlag=           0 FMFlag=           0 FMFlg1=           0
         NFxFlg=           0 DoJE=F BraDBF=F KetDBF=F FulRan=T
         wScrn=  0.000000 ICntrl=       600 IOpCl=  0 I1Cent=           0 NGrid=           0
         NMat0=    1 NMatS0=  56280 NMatT0=    0 NMatD0=    1 NMtDS0=    0 NMtDT0=    0
 Symmetry not used in FoFCou.
 Two-electron integral symmetry not used.
 MDV= 11408506880 DFT=T DoStab=F Mixed=T DoRPA=T DoScal=F NonHer=T
 NEqPCM:  Using equilibrium solvation (IEInf=0, Eps=   7.4257, EpsInf=   1.9740)
 Making orbital integer symmetry assigments:
    24 initial guesses have been made.
 Convergence on wavefunction:    0.000001000000000
 Davidson Disk Diagonalization:  ConvIn= 1.00D-06 SkipCon=T Conv= 1.00D-06.
 Max sub-space:  2000 roots to seek:    24 dimension of matrix:        26068
 Iteration     1 Dimension    24 NMult     0 NNew     24
 CISAX will form    24 AO SS matrices at one time.
 NMat=    24 NSing=    24 JSym2X= 0.
 Excitation Energies [eV] at current iteration:
 Root      1 :     3.223525625720981
 Root      2 :     4.127772827493577
 Root      3 :     4.295077827609345
 Root      4 :     4.445713340490692
 Root      5 :     4.599811187045890
 Root      6 :     5.705077438935179
 Root      7 :     5.855648231946880
 Root      8 :     5.936510487302345
 Root      9 :     6.080011240563796
 Root     10 :     6.277717360683268
 Root     11 :     6.665359322537422
 Root     12 :     6.807914686070453
[...]
     1  B    3.397469   0.345639  -0.027885  -0.000439  -0.000333   0.000173
     2  N    0.345639   6.202868   0.485370  -0.025388  -0.054385   0.003784
     3  C   -0.027885   0.485370   4.781728   0.404056   0.466397  -0.041087
     4  H   -0.000439  -0.025388   0.404056   0.591538  -0.040559  -0.003511
     5  C   -0.000333  -0.054385   0.466397  -0.040559   4.773300   0.413364
     6  H    0.000173   0.003784  -0.041087  -0.003511   0.413364   0.633159
     7  C    0.004393  -0.080493  -0.058096   0.007286   0.524778  -0.040236
     8  H    0.000343   0.004132   0.009519  -0.000067  -0.043701  -0.005994
     9  C   -0.065128   0.429736  -0.135944   0.002836  -0.039615   0.009093
    10  C   -0.008850  -0.043343   0.008036  -0.000794   0.009140  -0.000205
    11  N    0.344400  -0.028234   0.000112   0.000184  -0.000092   0.000002
    12  C   -0.026535   0.000238  -0.000009  -0.000007   0.000000  -0.000000
    13  H    0.000068   0.000183  -0.000006   0.000000  -0.000000  -0.000000
    14  C   -0.000866  -0.000108  -0.000002  -0.000000  -0.000000   0.000000
    15  H    0.000159   0.000002  -0.000000  -0.000000   0.000000  -0.000000
    16  C    0.003786   0.000038   0.000027   0.000002   0.000000  -0.000000
    17  H    0.000309  -0.000008   0.000000  -0.000000   0.000000  -0.000000
    18  C   -0.065403  -0.011063  -0.000314   0.000094  -0.000507   0.000005
    19  F    0.450531  -0.027093   0.005830   0.002549   0.000404   0.000002
    20  F    0.476052  -0.027113  -0.002615  -0.000389  -0.000093   0.000000
    21  C    0.002338   0.003809  -0.000173   0.000004   0.000577  -0.000001
    22  C   -0.000119   0.000059  -0.000043   0.000001   0.000297   0.000003
    23  H   -0.000023  -0.000191  -0.000093  -0.000001   0.000386   0.000006
    24  C    0.000002  -0.000001   0.000001   0.000000  -0.000011  -0.000000
    25  H    0.000000   0.000000  -0.000000  -0.000000  -0.000000   0.000000
    26  C   -0.000000  -0.000000   0.000000   0.000000  -0.000000  -0.000000
    27  C    0.000001   0.000001  -0.000000   0.000000  -0.000000  -0.000000
    28  H    0.000000  -0.000000   0.000000  -0.000000  -0.000000  -0.000000
    29  C    0.000008  -0.000073   0.000002  -0.000000  -0.000005   0.000000
    30  H   -0.000021  -0.000001  -0.000000  -0.000000  -0.000002   0.000000
    31  H    0.000000   0.000000   0.000000   0.000000  -0.000000  -0.000000
               7          8          9         10         11         12
     1  B    0.004393   0.000343  -0.065128  -0.008850   0.344400  -0.026535
     2  N   -0.080493   0.004132   0.429736  -0.043343  -0.028234   0.000238
     3  C   -0.058096   0.009519  -0.135944   0.008036   0.000112  -0.000009
     4  H    0.007286  -0.000067   0.002836  -0.000794   0.000184  -0.000007
     5  C    0.524778  -0.043701  -0.039615   0.009140  -0.000092   0.000000
     6  H   -0.040236  -0.005994   0.009093  -0.000205   0.000002  -0.000000
     7  C    4.919691   0.412167   0.454302  -0.105989   0.000084   0.000025
     8  H    0.412167   0.639358  -0.031493  -0.013907  -0.000006   0.000000
     9  C    0.454302  -0.031493   5.030963   0.308069  -0.011026  -0.000321
    10  C   -0.105989  -0.013907   0.308069   5.402985  -0.043668   0.008275
    11  N    0.000084  -0.000006  -0.011026  -0.043668   6.210696   0.484425
    12  C    0.000025   0.000000  -0.000321   0.008275   0.484425   4.780749
    13  H    0.000002  -0.000000   0.000102  -0.000833  -0.025290   0.403675
    14  C    0.000002  -0.000000  -0.000543   0.008677  -0.054208   0.464856
    15  H   -0.000000  -0.000000   0.000005  -0.000205   0.003805  -0.041300
    16  C   -0.000088   0.000003   0.011572  -0.105949  -0.082145  -0.057443
    17  H   -0.000000   0.000001   0.000069  -0.012079   0.004035   0.009479
    18  C    0.010549   0.000002  -0.003655   0.310883   0.430242  -0.135409
    19  F   -0.000122   0.000001  -0.003539   0.001368  -0.026265   0.005728
    20  F    0.000045   0.000001  -0.001121   0.000163  -0.028077  -0.002685
    21  C   -0.011491   0.003457  -0.077083   0.391000   0.003632  -0.000161
    22  C   -0.001794   0.003666  -0.018446  -0.075297  -0.000095   0.000000
    23  H    0.004032  -0.000745  -0.001434  -0.012984  -0.000003   0.000000
    24  C   -0.000466   0.000916   0.000656   0.007258   0.000000  -0.000000
    25  H    0.000012  -0.000002   0.000009  -0.000451  -0.000000   0.000000
    26  C   -0.000010  -0.000009  -0.000001   0.001303  -0.000000   0.000000
    27  C   -0.000013  -0.000062  -0.000263   0.007014   0.000001   0.000000
    28  H   -0.000000   0.000000   0.000003  -0.000437   0.000000  -0.000000
    29  C    0.000781  -0.000097   0.005368  -0.076614   0.000132  -0.000050
    30  H    0.000033   0.000003   0.000449  -0.013270  -0.000167  -0.000115
    31  H   -0.000000   0.000001   0.000000   0.000005   0.000000   0.000000
              13         14         15         16         17         18
     1  B    0.000068  -0.000866   0.000159   0.003786   0.000309  -0.065403
     2  N    0.000183  -0.000108   0.000002   0.000038  -0.000008  -0.011063
     3  C   -0.000006  -0.000002  -0.000000   0.000027   0.000000  -0.000314
     4  H    0.000000  -0.000000  -0.000000   0.000002  -0.000000   0.000094
     5  C   -0.000000  -0.000000   0.000000   0.000000   0.000000  -0.000507
     6  H   -0.000000   0.000000  -0.000000  -0.000000  -0.000000   0.000005
     7  C    0.000002   0.000002  -0.000000  -0.000088  -0.000000   0.010549
     8  H   -0.000000  -0.000000  -0.000000   0.000003   0.000001   0.000002
     9  C    0.000102  -0.000543   0.000005   0.011572   0.000069  -0.003655
    10  C   -0.000833   0.008677  -0.000205  -0.105949  -0.012079   0.310883
    11  N   -0.025290  -0.054208   0.003805  -0.082145   0.004035   0.430242
    12  C    0.403675   0.464856  -0.041300  -0.057443   0.009479  -0.135409
    13  H    0.591298  -0.040520  -0.003503   0.007423  -0.000066   0.002710
    14  C   -0.040520   4.775061   0.413155   0.522641  -0.042982  -0.038101
    15  H   -0.003503   0.413155   0.633195  -0.039721  -0.006140   0.009111
    16  C    0.007423   0.522641  -0.039721   4.932597   0.411491   0.449912
    17  H   -0.000066  -0.042982  -0.006140   0.411491   0.637928  -0.032347
    18  C    0.002710  -0.038101   0.009111   0.449912  -0.032347   5.022284
    19  F    0.002190   0.000406   0.000003  -0.000120   0.000000  -0.003501
    20  F   -0.000352  -0.000162  -0.000000   0.000050   0.000001  -0.001173
    21  C    0.000005   0.000698  -0.000001  -0.012681   0.001824  -0.073394
    22  C   -0.000000   0.000009   0.000000   0.000532  -0.000172   0.006027
    23  H   -0.000000  -0.000001   0.000000  -0.000012   0.000000   0.000972
    24  C   -0.000000  -0.000000  -0.000000  -0.000003  -0.000049  -0.000321
    25  H   -0.000000   0.000000  -0.000000  -0.000000   0.000000   0.000003
    26  C    0.000000   0.000000  -0.000000  -0.000008  -0.000018  -0.000001
    27  C    0.000000  -0.000015  -0.000000  -0.000246   0.001270   0.000614
    28  H   -0.000000  -0.000000   0.000000   0.000017  -0.000003   0.000014
    29  C    0.000000   0.000280   0.000006  -0.001115   0.004912  -0.016396
    30  H   -0.000001   0.000664   0.000011   0.004921  -0.001084  -0.002094
    31  H    0.000000  -0.000000  -0.000000  -0.000000   0.000000   0.000000
              19         20         21         22         23         24
     1  B    0.450531   0.476052   0.002338  -0.000119  -0.000023   0.000002
     2  N   -0.027093  -0.027113   0.003809   0.000059  -0.000191  -0.000001
     3  C    0.005830  -0.002615  -0.000173  -0.000043  -0.000093   0.000001
     4  H    0.002549  -0.000389   0.000004   0.000001  -0.000001   0.000000
     5  C    0.000404  -0.000093   0.000577   0.000297   0.000386  -0.000011
     6  H    0.000002   0.000000  -0.000001   0.000003   0.000006  -0.000000
     7  C   -0.000122   0.000045  -0.011491  -0.001794   0.004032  -0.000466
     8  H    0.000001   0.000001   0.003457   0.003666  -0.000745   0.000916
     9  C   -0.003539  -0.001121  -0.077083  -0.018446  -0.001434   0.000656
    10  C    0.001368   0.000163   0.391000  -0.075297  -0.012984   0.007258
    11  N   -0.026265  -0.028077   0.003632  -0.000095  -0.000003   0.000000
    12  C    0.005728  -0.002685  -0.000161   0.000000   0.000000  -0.000000
    13  H    0.002190  -0.000352   0.000005  -0.000000  -0.000000  -0.000000
    14  C    0.000406  -0.000162   0.000698   0.000009  -0.000001  -0.000000
    15  H    0.000003  -0.000000  -0.000001   0.000000   0.000000  -0.000000
    16  C   -0.000120   0.000050  -0.012681   0.000532  -0.000012  -0.000003
    17  H    0.000000   0.000001   0.001824  -0.000172   0.000000  -0.000049
    18  C   -0.003501  -0.001173  -0.073394   0.006027   0.000972  -0.000321
    19  F    8.850577  -0.019824   0.000003  -0.000000  -0.000000  -0.000000
    20  F   -0.019824   8.840323   0.000004   0.000000   0.000000   0.000000
    21  C    0.000003   0.000004   5.021821   0.493679  -0.050415  -0.008360
    22  C   -0.000000   0.000000   0.493679   4.804210   0.403898   0.521340
    23  H   -0.000000   0.000000  -0.050415   0.403898   0.672926  -0.035442
    24  C   -0.000000   0.000000  -0.008360   0.521340  -0.035442   4.713375
    25  H    0.000000  -0.000000   0.008412  -0.036375  -0.012477   0.397553
    26  C   -0.000000   0.000000  -0.062990  -0.020434   0.009029   0.510532
    27  C    0.000000  -0.000000  -0.008796  -0.065180  -0.000662  -0.010132
    28  H    0.000000   0.000000   0.008317   0.000113   0.000054   0.008339
    29  C    0.000000  -0.000000   0.494890  -0.025270   0.009654  -0.065491
    30  H    0.000000  -0.000000  -0.049225   0.009278  -0.000176  -0.000611
    31  H   -0.000000   0.000000  -0.000494   0.009345  -0.000192  -0.043614
              25         26         27         28         29         30
     1  B    0.000000  -0.000000   0.000001   0.000000   0.000008  -0.000021
     2  N    0.000000  -0.000000   0.000001  -0.000000  -0.000073  -0.000001
     3  C   -0.000000   0.000000  -0.000000   0.000000   0.000002  -0.000000
     4  H   -0.000000   0.000000   0.000000  -0.000000  -0.000000  -0.000000
     5  C   -0.000000  -0.000000  -0.000000  -0.000000  -0.000005  -0.000002
     6  H    0.000000  -0.000000  -0.000000  -0.000000   0.000000   0.000000
     7  C    0.000012  -0.000010  -0.000013  -0.000000   0.000781   0.000033
     8  H   -0.000002  -0.000009  -0.000062   0.000000  -0.000097   0.000003
     9  C    0.000009  -0.000001  -0.000263   0.000003   0.005368   0.000449
    10  C   -0.000451   0.001303   0.007014  -0.000437  -0.076614  -0.013270
    11  N   -0.000000  -0.000000   0.000001   0.000000   0.000132  -0.000167
    12  C    0.000000   0.000000   0.000000  -0.000000  -0.000050  -0.000115
    13  H   -0.000000   0.000000   0.000000  -0.000000   0.000000  -0.000001
    14  C    0.000000   0.000000  -0.000015  -0.000000   0.000280   0.000664
    15  H   -0.000000  -0.000000  -0.000000   0.000000   0.000006   0.000011
    16  C   -0.000000  -0.000008  -0.000246   0.000017  -0.001115   0.004921
    17  H    0.000000  -0.000018   0.001270  -0.000003   0.004912  -0.001084
    18  C    0.000003  -0.000001   0.000614   0.000014  -0.016396  -0.002094
    19  F    0.000000  -0.000000   0.000000   0.000000   0.000000   0.000000
    20  F   -0.000000   0.000000  -0.000000   0.000000  -0.000000  -0.000000
    21  C    0.008412  -0.062990  -0.008796   0.008317   0.494890  -0.049225
    22  C   -0.036375  -0.020434  -0.065180   0.000113  -0.025270   0.009278
    23  H   -0.012477   0.009029  -0.000662   0.000054   0.009654  -0.000176
    24  C    0.397553   0.510532  -0.010132   0.008339  -0.065491  -0.000611
    25  H    0.670182  -0.045205   0.008369  -0.000214   0.000072   0.000054
    26  C   -0.045205   4.757524   0.512741  -0.044902  -0.021056   0.008875
    27  C    0.008369   0.512741   4.711073   0.397221   0.520940  -0.034524
    28  H   -0.000214  -0.044902   0.397221   0.670138  -0.036173  -0.012431
    29  C    0.000072  -0.021056   0.520940  -0.036173   4.809188   0.401848
    30  H    0.000054   0.008875  -0.034524  -0.012431   0.401848   0.672183
    31  H   -0.012316   0.402156  -0.043478  -0.012326   0.009404  -0.000194
              31
     1  B    0.000000
     2  N    0.000000
     3  C    0.000000
     4  H    0.000000
     5  C   -0.000000
     6  H   -0.000000
     7  C   -0.000000
     8  H    0.000001
     9  C    0.000000
    10  C    0.000005
    11  N    0.000000
    12  C    0.000000
    13  H    0.000000
    14  C   -0.000000
    15  H   -0.000000
    16  C   -0.000000
    17  H    0.000000
    18  C    0.000000
    19  F   -0.000000
    20  F    0.000000
    21  C   -0.000494
    22  C    0.009345
    23  H   -0.000192
    24  C   -0.043614
    25  H   -0.012316
    26  C    0.402156
    27  C   -0.043478
    28  H   -0.012326
    29  C    0.009404
    30  H   -0.000194
    31  H    0.670800
 Mulliken charges:
               1
     1  B    0.169929
     2  N   -0.178365
     3  C    0.105191
     4  H    0.062605
     5  C   -0.009339
     6  H    0.031443
     7  C   -0.039380
     8  H    0.022514
     9  C    0.136379
    10  C    0.050697
    11  N   -0.182473
    12  C    0.106584
    13  H    0.062917
    14  C   -0.008941
    15  H    0.031419
    16  C   -0.045480
    17  H    0.023627
    18  C    0.140255
    19  F   -0.239127
    20  F   -0.233038
    21  C   -0.079207
    22  C   -0.009233
    23  H    0.013893
    24  C    0.004528
    25  H    0.022376
    26  C   -0.007527
    27  C    0.004127
    28  H    0.022271
    29  C   -0.015147
    30  H    0.015597
    31  H    0.020903
 Sum of Mulliken charges =  -0.00000
 Mulliken charges with hydrogens summed into heavy atoms:
               1
     1  B    0.169929
     2  N   -0.178365
     3  C    0.167796
     5  C    0.022104
     7  C   -0.016867
     9  C    0.136379
    10  C    0.050697
    11  N   -0.182473
    12  C    0.169501
    14  C    0.022478
    16  C   -0.021853
    18  C    0.140255
    19  F   -0.239127
    20  F   -0.233038
    21  C   -0.079207
    22  C    0.004661
    24  C    0.026904
    26  C    0.013376
    27  C    0.026397
    29  C    0.000451
 Electronic spatial extent (au):  <R**2>=           8489.4077
 Charge=              0.0000 electrons
 Dipole moment (field-independent basis, Debye):
    X=             -3.9965    Y=              1.3803    Z=              3.1236  Tot=              5.2568
 Quadrupole moment (field-independent basis, Debye-Ang):
   XX=            -87.9268   YY=           -118.7984   ZZ=            -88.1719
   XY=             -3.1157   XZ=             -1.6197   YZ=             -3.5208
 Traceless Quadrupole moment (field-independent basis, Debye-Ang):
   XX=             10.3722   YY=            -20.4994   ZZ=             10.1272
   XY=             -3.1157   XZ=             -1.6197   YZ=             -3.5208
 Octapole moment (field-independent basis, Debye-Ang**2):
  XXX=            609.5952  YYY=             14.6081  ZZZ=           -487.8272  XYY=            243.4104
  XXY=             31.6151  XXZ=           -119.2453  XZZ=            183.9948  YZZ=            -16.1538
  YYZ=           -185.3177  XYZ=             10.0545
 Hexadecapole moment (field-independent basis, Debye-Ang**3):
 XXXX=          -5796.0319 YYYY=           -370.7995 ZZZZ=          -4330.3627 XXXY=           -168.6523
 XXXZ=           1294.3009 YYYX=             34.3150 YYYZ=             57.4943 ZZZX=           1487.3127
 ZZZY=            -65.2351 XXYY=          -1165.4647 XXZZ=          -1455.4913 YYZZ=           -870.4436
 XXYZ=             28.5555 YYXZ=            548.5169 ZZXY=             99.9883
 N-N= 1.465966511152D+03 E-N=-5.061600146681D+03  KE= 9.065681260772D+02
 No NMR shielding tensors so no spin-rotation constants.
 Leave Link  601 at Tue Feb  1 14:46:32 2022, MaxMem= 11408506880 cpu:               5.6 elap:               0.6
 (Enter /lustre1/prg/gaussian/bin/G16_C01_Linda9.2_SSE4/g16/l9999.exe)
 Electronic transition elements 
                 1             2             3             4             5 
      1  -0.912092D+03 -0.912048D+03 -0.912046D+03 -0.912036D+03 -0.912031D+03
      2   0.183173D+01 -0.169869D+01 -0.826414D+00 -0.637156D+00  0.833609D-01
      3  -0.449000D-01 -0.805372D-01 -0.516836D-02  0.128131D-01 -0.297657D+00
      4   0.245635D+01  0.144383D+01 -0.676045D+00  0.462496D+00  0.184728D-01
      5  -0.183362D+00  0.241827D+00  0.122244D+00  0.100863D+00 -0.163485D-01
      6   0.532502D-02  0.113524D-01  0.497639D-03 -0.132836D-02  0.515362D-01
      7  -0.245866D+00 -0.206440D+00  0.101389D+00 -0.737816D-01 -0.617195D-02
      8  -0.129695D-01  0.418273D-01 -0.214252D-01 -0.625842D-01 -0.425986D+00
      9  -0.233758D+01  0.917298D-01 -0.490904D+00 -0.869611D-01 -0.544122D+00
     10  -0.248074D-01 -0.557884D-01  0.513134D-01 -0.137786D+00 -0.542135D+00
     11   0.692999D+00 -0.244883D+01 -0.112648D+01 -0.606096D+00  0.307995D+00
     12   0.198760D-02 -0.688620D-01 -0.726610D-02  0.853485D-03 -0.114163D-01
     13  -0.720634D+00 -0.119812D+01  0.702286D+00 -0.423189D+00 -0.283413D+00
     14  -0.462718D-01 -0.157677D-01  0.310588D-01 -0.326404D-01 -0.411329D+00
     15   0.210160D+00  0.267865D+01  0.773727D-01  0.366185D+00  0.849302D-01
     16  -0.612711D-01  0.793650D-01  0.278277D-01  0.167712D-01  0.333603D+00
                 6 
      1  -0.911985D+03
      2   0.806194D+00
      3   0.883163D-01
      4  -0.684119D+00
      5  -0.164592D+00
      6  -0.172882D-01
      7   0.141106D+00
      8   0.734615D-02
      9   0.614885D-01
     10   0.119832D+00
     11   0.103776D+01
     12   0.719136D-01
     13   0.185290D+00
     14   0.286775D-01
     15  -0.168009D+01
     16  -0.814692D-01
 Unable to Open any file for archive entry.
 1\1\VILNIUS-FIZIKA65\FOpt\RM062X TD-FC\CC-pVDZ\C15H11B1F2N2\TOLISTE\01
 -Feb-2022\0\\#p m062x cc-pvdz scrf=(cpcm,solvent=TetraHydroFuran) td=(
 nstate=6,root=1) opt=tight nosymm density=all int=ultrafine fchk\\BDP-
 phenyl, optimized S1 in toluene\\0,1\B,-0.0168103106,-0.2677089437,0.0
 111766458\N,0.000550992,-0.0722438496,1.5429271906\C,1.0957253277,0.03
 8368425,2.3031342497\H,2.0869270482,0.0365049917,1.854370818\C,0.72392
 23285,0.1536148473,3.6699705439\H,1.4145198456,0.2627966324,4.50133821
 92\C,-0.6618512663,0.1160342326,3.7203161364\H,-1.2988534124,0.2112190
 698,4.5942009577\C,-1.1249915163,-0.0275200039,2.3781599005\C,-2.44723
 10231,-0.0345206796,1.8506782319\N,-1.4717753663,0.0448027885,-0.40874
 35578\C,-1.8961473183,0.1632691811,-1.6718372192\H,-1.1883820883,0.170
 3911859,-2.4982866214\C,-3.3144499697,0.2397233848,-1.6992585924\H,-3.
 9216130082,0.3341034627,-2.5950641033\C,-3.7534159034,0.159336378,-0.3
 856783427\H,-4.7784947033,0.1696223004,-0.0301807073\C,-2.5925358534,0
 .0485161901,0.43776173\F,0.8736905126,0.608969336,-0.6054187921\F,0.31
 11709459,-1.586533876,-0.3216553992\C,-3.60927173,-0.0497015052,2.7522
 773425\C,-3.669691538,-0.9703889959,3.8134800183\H,-2.8596074552,-1.68
 98186249,3.9450463168\C,-4.7633736645,-0.9895923535,4.6746234855\H,-4.
 7977901254,-1.7178816308,5.4855627444\C,-5.8146215026,-0.0885376193,4.
 4966037474\C,-5.7629468578,0.8341430757,3.4509983522\H,-6.5733923286,1
 .5505620567,3.3126716829\C,-4.6719880604,0.8552572628,2.5856844002\H,-
 4.6243070701,1.6014120833,1.7913781389\H,-6.6703689283,-0.1042008023,5
 .1721834826\\Version=ES64L-G16RevC.01\HF=-912.1903558\RMSD=4.770e-09\R
 MSF=1.671e-06\Dipole=-1.5723615,0.543058,1.2289068\Quadrupole=7.711501
 3,-15.2407972,7.5292958,-2.3164186,-1.2041721,-2.6176513\PG=C01 [X(C15
 H11B1F2N2)]\\@
 The archive entry for this job was punched.


 MUD THROWN IS GROUND LOST -- FROM A TEA BAG
 Job cpu time:       0 days  0 hours  3 minutes 10.8 seconds.
 Elapsed time:       0 days  2 hours 26 minutes 19.8 seconds.
 File lengths (MBytes):  RWF=    779 Int=      0 D2E=      0 Chk=     37 Scr=      1
 Normal termination of Gaussian 16 at Tue Feb  1 14:46:35 2022.
