 Entering Gaussian System, Link 0=/lustre1/prg/gaussian/bin/G16_C01_Linda_AVX2/g16/g16
 Initial command:
 /lustre1/prg/gaussian/bin/G16_C01_Linda_AVX2/g16/l1.exe "/lustre1/prg/webmo/data/webmo20/toliste/4366/scratch/Gau-2105937.inp" -scrdir="/lustre1/prg/webmo/data/webmo20/toliste/4366/scratch/"
 Default is to use a total of  32 processors:
                               32 via shared-memory
                                1 via Linda
 Entering Link 1 = /lustre1/prg/gaussian/bin/G16_C01_Linda_AVX2/g16/l1.exe PID=   2105938.
  
 Copyright (c) 1988-2019, Gaussian, Inc.  All Rights Reserved.
  
 This is part of the Gaussian(R) 16 program.  It is based on
 the Gaussian(R) 09 system (copyright 2009, Gaussian, Inc.),
 the Gaussian(R) 03 system (copyright 2003, Gaussian, Inc.),
 the Gaussian(R) 98 system (copyright 1998, Gaussian, Inc.),
 the Gaussian(R) 94 system (copyright 1995, Gaussian, Inc.),
 the Gaussian 92(TM) system (copyright 1992, Gaussian, Inc.),
 the Gaussian 90(TM) system (copyright 1990, Gaussian, Inc.),
 the Gaussian 88(TM) system (copyright 1988, Gaussian, Inc.),
 the Gaussian 86(TM) system (copyright 1986, Carnegie Mellon
 University), and the Gaussian 82(TM) system (copyright 1983,
 Carnegie Mellon University). Gaussian is a federally registered
 trademark of Gaussian, Inc.
  
 This software contains proprietary and confidential information,
 including trade secrets, belonging to Gaussian, Inc.
  
 This software is provided under written license and may be
 used, copied, transmitted, or stored only in accord with that
 written license.
  
 The following legend is applicable only to US Government
 contracts under FAR:
  
                    RESTRICTED RIGHTS LEGEND
  
 Use, reproduction and disclosure by the US Government is
 subject to restrictions as set forth in subparagraphs (a)
 and (c) of the Commercial Computer Software - Restricted
 Rights clause in FAR 52.227-19.
  
 Gaussian, Inc.
 340 Quinnipiac St., Bldg. 40, Wallingford CT 06492
  
  
 ---------------------------------------------------------------
 Warning -- This program may not be used in any manner that
 competes with the business of Gaussian, Inc. or will provide
 assistance to any competitor of Gaussian, Inc.  The licensee
 of this program is prohibited from giving any competitor of
 Gaussian, Inc. access to this program.  By using this program,
 the user acknowledges that Gaussian, Inc. is engaged in the
 business of creating and licensing software in the field of
 computational chemistry and represents and warrants to the
 licensee that it is not a competitor of Gaussian, Inc. and that
 it will not use this program in any manner prohibited above.
 ---------------------------------------------------------------
  

 Cite this work as:
 Gaussian 16, Revision C.01,
 M. J. Frisch, G. W. Trucks, H. B. Schlegel, G. E. Scuseria, 
 M. A. Robb, J. R. Cheeseman, G. Scalmani, V. Barone, 
 G. A. Petersson, H. Nakatsuji, X. Li, M. Caricato, A. V. Marenich, 
 J. Bloino, B. G. Janesko, R. Gomperts, B. Mennucci, H. P. Hratchian, 
 J. V. Ortiz, A. F. Izmaylov, J. L. Sonnenberg, D. Williams-Young, 
 F. Ding, F. Lipparini, F. Egidi, J. Goings, B. Peng, A. Petrone, 
 T. Henderson, D. Ranasinghe, V. G. Zakrzewski, J. Gao, N. Rega, 
 G. Zheng, W. Liang, M. Hada, M. Ehara, K. Toyota, R. Fukuda, 
 J. Hasegawa, M. Ishida, T. Nakajima, Y. Honda, O. Kitao, H. Nakai, 
 T. Vreven, K. Throssell, J. A. Montgomery, Jr., J. E. Peralta, 
 F. Ogliaro, M. J. Bearpark, J. J. Heyd, E. N. Brothers, K. N. Kudin, 
 V. N. Staroverov, T. A. Keith, R. Kobayashi, J. Normand, 
 K. Raghavachari, A. P. Rendell, J. C. Burant, S. S. Iyengar, 
 J. Tomasi, M. Cossi, J. M. Millam, M. Klene, C. Adamo, R. Cammi, 
 J. W. Ochterski, R. L. Martin, K. Morokuma, O. Farkas, 
 J. B. Foresman, and D. J. Fox, Gaussian, Inc., Wallingford CT, 2019.
 
 ******************************************
 Gaussian 16:  ES64L-G16RevC.01  3-Jul-2019
                31-Jan-2022 
 ******************************************
 %LindaWorkers=fizika347,fizika348
 %chk=bodipy.chk
 SetLPE:  input flags=" -opt "Tsnet.Node.lindarsharg: ssh" "
 SetLPE:    new flags=" -opt "Tsnet.Node.lindarsharg: ssh" -opt 'Tsnet.Node.lindarsharg: ssh'  -nodelist 'fizika347.fizika.bullx fizika348.fizika.bullx' -env GAUSS_MDEF=49660559360 -env GAUSS_EXEDIR="/lustre1/prg/gaussian/bin/G16_C01_Linda_AVX2/g16/bsd:/lustre1/prg/gaussian/bin/G16_C01_Linda_AVX2/g16/private:/lustre1/prg/gaussian/bin/G16_C01_Linda_AVX2/g16""
 Will use up to    2 processors via Linda.
 ----------------------------------------------------------------------
 #p m062x cc-pvdz scrf=(cpcm,solvent=DiMethylSulfoxide) td=(nstate=6,ro
 ot=1) opt=tight nosymm density=all int=ultrafine fchk
 ----------------------------------------------------------------------
 1/7=10,18=20,19=15,26=6,38=1/1,3;
 2/9=110,12=2,15=1,17=6,18=5,40=1/2;
 3/5=16,11=9,25=1,30=1,70=2101,71=1,72=21,74=-55,75=-5/1,2,3,8;
 4//1;
 5/5=2,38=5,53=21/2;
 8/6=1,10=1,107=1,108=6/1;
 9/8=1,15=2,30=10,41=6,42=1,70=2/14;
 10/5=4,28=1,31=1/2;
 6/7=2,8=2,9=2,10=2,22=-2/1;
 7/12=6,13=5,14=1,30=1/1,2,3,16;
 1/7=10,18=20,19=15,26=6/3(2);
 2/9=110,15=1/2;
 99//99;
 2/9=110,15=1/2;
 3/5=16,11=9,25=1,30=1,70=2105,71=1,72=21,74=-55,75=-5/1,2,3,8;
 4/5=5,16=3,69=1/1;
 5/5=2,38=5,53=21/2;
 8/6=1,10=1,107=1,108=6/1;
 9/8=1,15=2,30=10,41=6,42=1,49=4,70=2/14;
 10/5=4,28=1,31=1/2;
 7/12=6,13=5,14=1,30=1/1,2,3,16;
 1/7=10,18=20,19=15,26=6/3(-8);
 2/9=110,15=1/2;
 6/7=2,8=2,9=2,10=2,22=-2/1;
 99/9=10/99;
 Leave Link    1 at Mon Jan 31 13:51:59 2022, MaxMem=           0 cpu:               2.4 elap:               0.1
 (Enter /lustre1/prg/gaussian/bin/G16_C01_Linda_AVX2/g16/l101.exe)
 -----------------------------------
 BDP-phenyl, optimized R1 in toluene
 -----------------------------------
 Symbolic Z-matrix:
 Charge =  0 Multiplicity = 1
 B                    -0.22646   1.02681   0.36646 
 N                    -0.06346   0.11716   1.6183 
 C                     1.04881  -0.4059    2.13522 
 H                     2.02119  -0.16772   1.71082 
 C                     0.71474  -1.24518   3.22852 
 H                     1.42267  -1.78941   3.84689 
 C                    -0.67094  -1.22985   3.34561 
 H                    -1.28192  -1.79526   4.04248 
 C                    -1.16328  -0.35008   2.3457 
 C                    -2.50187  -0.00928   1.91758 
 N                    -1.51319   0.44742  -0.28853 
 C                    -1.77437   0.23585  -1.57892 
 H                    -1.06149   0.53442  -2.34383 
 C                    -3.03758  -0.39527  -1.70995 
 H                    -3.51184  -0.6718   -2.64717 
 C                    -3.53461  -0.58315  -0.42471 
 H                    -4.45639  -1.08008  -0.13831 
 C                    -2.58533  -0.02833   0.47368 
 F                    -0.42456   2.34713   0.74603 
 F                     0.85674   0.8763   -0.48305 
 C                    -3.6264    0.15309   2.79958 
 C                    -3.46924   0.10032   4.20663 
 H                    -2.47734  -0.03957   4.63367 
 C                    -4.55662   0.26174   5.05338 
 H                    -4.40589   0.21851   6.13251 
 C                    -5.83355   0.49213   4.53442 
 C                    -6.00218   0.58814   3.15055 
 H                    -6.98729   0.80149   2.73438 
 C                    -4.92145   0.42812   2.29504 
 H                    -5.06883   0.54548   1.22249 
 H                    -6.6855    0.61676   5.20297 
 
 ITRead=  0  0  0  0  0  0  0  0  0  0  0  0  0  0  0  0  0  0  0  0
 ITRead=  0  0  0  0  0  0  0  0  0  0  0
 MicOpt= -1 -1 -1 -1 -1 -1 -1 -1 -1 -1 -1 -1 -1 -1 -1 -1 -1 -1 -1 -1
 MicOpt= -1 -1 -1 -1 -1 -1 -1 -1 -1 -1 -1
 NAtoms=     31 NQM=       31 NQMF=       0 NMMI=      0 NMMIF=      0
                NMic=       0 NMicF=      0.
                    Isotopes and Nuclear Properties:
 (Nuclear quadrupole moments (NQMom) in fm**2, nuclear magnetic moments (NMagM)
  in nuclear magnetons)

  Atom         1           2           3           4           5           6           7           8           9          10
 IAtWgt=          11          14          12           1          12           1          12           1          12          12
 AtmWgt=  11.0093053  14.0030740  12.0000000   1.0078250  12.0000000   1.0078250  12.0000000   1.0078250  12.0000000  12.0000000
 NucSpn=           3           2           0           1           0           1           0           1           0           0
 AtZEff=  -0.0000000  -0.0000000  -0.0000000  -0.0000000  -0.0000000  -0.0000000  -0.0000000  -0.0000000  -0.0000000  -0.0000000
 NQMom=    4.0590000   2.0440000   0.0000000   0.0000000   0.0000000   0.0000000   0.0000000   0.0000000   0.0000000   0.0000000
 NMagM=    2.6886370   0.4037610   0.0000000   2.7928460   0.0000000   2.7928460   0.0000000   2.7928460   0.0000000   0.0000000
 AtZNuc=   5.0000000   7.0000000   6.0000000   1.0000000   6.0000000   1.0000000   6.0000000   1.0000000   6.0000000   6.0000000

  Atom        11          12          13          14          15          16          17          18          19          20
 IAtWgt=          14          12           1          12           1          12           1          12          19          19
 AtmWgt=  14.0030740  12.0000000   1.0078250  12.0000000   1.0078250  12.0000000   1.0078250  12.0000000  18.9984032  18.9984032
 NucSpn=           2           0           1           0           1           0           1           0           1           1
 AtZEff=  -0.0000000  -0.0000000  -0.0000000  -0.0000000  -0.0000000  -0.0000000  -0.0000000  -0.0000000  -0.0000000  -0.0000000
 NQMom=    2.0440000   0.0000000   0.0000000   0.0000000   0.0000000   0.0000000   0.0000000   0.0000000   0.0000000   0.0000000
 NMagM=    0.4037610   0.0000000   2.7928460   0.0000000   2.7928460   0.0000000   2.7928460   0.0000000   2.6288670   2.6288670
 AtZNuc=   7.0000000   6.0000000   1.0000000   6.0000000   1.0000000   6.0000000   1.0000000   6.0000000   9.0000000   9.0000000

  Atom        21          22          23          24          25          26          27          28          29          30
 IAtWgt=          12          12           1          12           1          12          12           1          12           1
 AtmWgt=  12.0000000  12.0000000   1.0078250  12.0000000   1.0078250  12.0000000  12.0000000   1.0078250  12.0000000   1.0078250
 NucSpn=           0           0           1           0           1           0           0           1           0           1
 AtZEff=  -0.0000000  -0.0000000  -0.0000000  -0.0000000  -0.0000000  -0.0000000  -0.0000000  -0.0000000  -0.0000000  -0.0000000
 NQMom=    0.0000000   0.0000000   0.0000000   0.0000000   0.0000000   0.0000000   0.0000000   0.0000000   0.0000000   0.0000000
 NMagM=    0.0000000   0.0000000   2.7928460   0.0000000   2.7928460   0.0000000   0.0000000   2.7928460   0.0000000   2.7928460
 AtZNuc=   6.0000000   6.0000000   1.0000000   6.0000000   1.0000000   6.0000000   6.0000000   1.0000000   6.0000000   1.0000000

  Atom        31
 IAtWgt=           1
 AtmWgt=   1.0078250
 NucSpn=           1
 AtZEff=  -0.0000000
 NQMom=    0.0000000
 NMagM=    2.7928460
 AtZNuc=   1.0000000
 Leave Link  101 at Mon Jan 31 13:52:00 2022, MaxMem= 49660559360 cpu:              26.0 elap:               0.8
 (Enter /lustre1/prg/gaussian/bin/G16_C01_Linda_AVX2/g16/l103.exe)

 GradGradGradGradGradGradGradGradGradGradGradGradGradGradGradGradGradGrad
 Berny optimization.
 Initialization pass.
                           ----------------------------
                           !    Initial Parameters    !
                           ! (Angstroms and Degrees)  !
 --------------------------                            --------------------------
 ! Name  Definition              Value          Derivative Info.                !
 --------------------------------------------------------------------------------
 ! R1    R(1,2)                  1.556          estimate D2E/DX2                !
 ! R2    R(1,11)                 1.5558         estimate D2E/DX2                !
 ! R3    R(1,19)                 1.388          estimate D2E/DX2                !
 ! R4    R(1,20)                 1.3848         estimate D2E/DX2                !
 ! R5    R(2,3)                  1.3334         estimate D2E/DX2                !
 ! R6    R(2,9)                  1.3989         estimate D2E/DX2                !
 ! R7    R(3,4)                  1.0874         estimate D2E/DX2                !
 ! R8    R(3,5)                  1.4182         estimate D2E/DX2                !
 ! R9    R(5,6)                  1.0862         estimate D2E/DX2                !
 ! R10   R(5,7)                  1.3907         estimate D2E/DX2                !
 ! R11   R(7,8)                  1.0856         estimate D2E/DX2                !
 ! R12   R(7,9)                  1.4199         estimate D2E/DX2                !
 ! R13   R(9,10)                 1.4461         estimate D2E/DX2                !
 ! R14   R(10,18)                1.4464         estimate D2E/DX2                !
 ! R15   R(10,21)                1.4384         estimate D2E/DX2                !
 ! R16   R(11,12)                1.3335         estimate D2E/DX2                !
 ! R17   R(11,18)                1.3989         estimate D2E/DX2                !
 ! R18   R(12,13)                1.0874         estimate D2E/DX2                !
 ! R19   R(12,14)                1.4182         estimate D2E/DX2                !
 ! R20   R(14,15)                1.0862         estimate D2E/DX2                !
 ! R21   R(14,16)                1.3907         estimate D2E/DX2                !
 ! R22   R(16,17)                1.0857         estimate D2E/DX2                !
 ! R23   R(16,18)                1.4199         estimate D2E/DX2                !
 ! R24   R(21,22)                1.4168         estimate D2E/DX2                !
 ! R25   R(21,29)                1.4168         estimate D2E/DX2                !
 ! R26   R(22,23)                1.0889         estimate D2E/DX2                !
 ! R27   R(22,24)                1.3876         estimate D2E/DX2                !
 ! R28   R(24,25)                1.0905         estimate D2E/DX2                !
 ! R29   R(24,26)                1.3975         estimate D2E/DX2                !
 ! R30   R(26,27)                1.3974         estimate D2E/DX2                !
 ! R31   R(26,31)                1.0901         estimate D2E/DX2                !
 ! R32   R(27,28)                1.0905         estimate D2E/DX2                !
 ! R33   R(27,29)                1.3876         estimate D2E/DX2                !
 ! R34   R(29,30)                1.089          estimate D2E/DX2                !
 ! A1    A(2,1,11)             101.9836         estimate D2E/DX2                !
 ! A2    A(2,1,19)             110.5514         estimate D2E/DX2                !
 ! A3    A(2,1,20)             110.3687         estimate D2E/DX2                !
 ! A4    A(11,1,19)            110.5695         estimate D2E/DX2                !
 ! A5    A(11,1,20)            110.3771         estimate D2E/DX2                !
 ! A6    A(19,1,20)            112.5065         estimate D2E/DX2                !
 ! A7    A(1,2,3)              128.9472         estimate D2E/DX2                !
 ! A8    A(1,2,9)              122.0884         estimate D2E/DX2                !
 ! A9    A(3,2,9)              108.8569         estimate D2E/DX2                !
 ! A10   A(2,3,4)              120.5784         estimate D2E/DX2                !
 ! A11   A(2,3,5)              109.543          estimate D2E/DX2                !
 ! A12   A(4,3,5)              129.8783         estimate D2E/DX2                !
 ! A13   A(3,5,6)              125.5836         estimate D2E/DX2                !
 ! A14   A(3,5,7)              107.0431         estimate D2E/DX2                !
 ! A15   A(6,5,7)              127.3733         estimate D2E/DX2                !
 ! A16   A(5,7,8)              127.5214         estimate D2E/DX2                !
 ! A17   A(5,7,9)              107.0385         estimate D2E/DX2                !
 ! A18   A(8,7,9)              125.4206         estimate D2E/DX2                !
 ! A19   A(2,9,7)              107.488          estimate D2E/DX2                !
 ! A20   A(2,9,10)             119.675          estimate D2E/DX2                !
 ! A21   A(7,9,10)             132.4882         estimate D2E/DX2                !
 ! A22   A(9,10,18)            110.2326         estimate D2E/DX2                !
 ! A23   A(9,10,21)            124.6633         estimate D2E/DX2                !
 ! A24   A(18,10,21)           124.646          estimate D2E/DX2                !
 ! A25   A(1,11,12)            128.9401         estimate D2E/DX2                !
 ! A26   A(1,11,18)            122.0841         estimate D2E/DX2                !
 ! A27   A(12,11,18)           108.8567         estimate D2E/DX2                !
 ! A28   A(11,12,13)           120.5797         estimate D2E/DX2                !
 ! A29   A(11,12,14)           109.5416         estimate D2E/DX2                !
 ! A30   A(13,12,14)           129.8783         estimate D2E/DX2                !
 ! A31   A(12,14,15)           125.5878         estimate D2E/DX2                !
 ! A32   A(12,14,16)           107.0417         estimate D2E/DX2                !
 ! A33   A(15,14,16)           127.3705         estimate D2E/DX2                !
 ! A34   A(14,16,17)           127.5219         estimate D2E/DX2                !
 ! A35   A(14,16,18)           107.0379         estimate D2E/DX2                !
 ! A36   A(17,16,18)           125.4214         estimate D2E/DX2                !
 ! A37   A(10,18,11)           119.6848         estimate D2E/DX2                !
 ! A38   A(10,18,16)           132.4802         estimate D2E/DX2                !
 ! A39   A(11,18,16)           107.4904         estimate D2E/DX2                !
 ! A40   A(10,21,22)           121.2024         estimate D2E/DX2                !
 ! A41   A(10,21,29)           121.2096         estimate D2E/DX2                !
 ! A42   A(22,21,29)           117.5349         estimate D2E/DX2                !
 ! A43   A(21,22,23)           119.6891         estimate D2E/DX2                !
 ! A44   A(21,22,24)           120.9828         estimate D2E/DX2                !
 ! A45   A(23,22,24)           119.3034         estimate D2E/DX2                !
 ! A46   A(22,24,25)           119.4035         estimate D2E/DX2                !
 ! A47   A(22,24,26)           120.571          estimate D2E/DX2                !
 ! A48   A(25,24,26)           120.0219         estimate D2E/DX2                !
 ! A49   A(24,26,27)           119.2974         estimate D2E/DX2                !
 ! A50   A(24,26,31)           120.3456         estimate D2E/DX2                !
 ! A51   A(27,26,31)           120.3443         estimate D2E/DX2                !
 ! A52   A(26,27,28)           120.0258         estimate D2E/DX2                !
 ! A53   A(26,27,29)           120.5743         estimate D2E/DX2                !
 ! A54   A(28,27,29)           119.3964         estimate D2E/DX2                !
 ! A55   A(21,29,27)           120.9797         estimate D2E/DX2                !
 ! A56   A(21,29,30)           119.6945         estimate D2E/DX2                !
 ! A57   A(27,29,30)           119.3008         estimate D2E/DX2                !
 ! D1    D(11,1,2,3)           139.2715         estimate D2E/DX2                !
 ! D2    D(11,1,2,9)           -36.5239         estimate D2E/DX2                !
 ! D3    D(19,1,2,3)          -103.1373         estimate D2E/DX2                !
 ! D4    D(19,1,2,9)            81.0673         estimate D2E/DX2                !
 ! D5    D(20,1,2,3)            21.9809         estimate D2E/DX2                !
 ! D6    D(20,1,2,9)          -153.8145         estimate D2E/DX2                !
 ! D7    D(2,1,11,12)         -139.1822         estimate D2E/DX2                !
 ! D8    D(2,1,11,18)           36.3892         estimate D2E/DX2                !
 ! D9    D(19,1,11,12)         103.2396         estimate D2E/DX2                !
 ! D10   D(19,1,11,18)         -81.189          estimate D2E/DX2                !
 ! D11   D(20,1,11,12)         -21.8977         estimate D2E/DX2                !
 ! D12   D(20,1,11,18)         153.6737         estimate D2E/DX2                !
 ! D13   D(1,2,3,4)              3.712          estimate D2E/DX2                !
 ! D14   D(1,2,3,5)           -176.1031         estimate D2E/DX2                !
 ! D15   D(9,2,3,4)            179.9484         estimate D2E/DX2                !
 ! D16   D(9,2,3,5)              0.1333         estimate D2E/DX2                !
 ! D17   D(1,2,9,7)            175.3782         estimate D2E/DX2                !
 ! D18   D(1,2,9,10)             1.3375         estimate D2E/DX2                !
 ! D19   D(3,2,9,7)             -1.1673         estimate D2E/DX2                !
 ! D20   D(3,2,9,10)          -175.2081         estimate D2E/DX2                !
 ! D21   D(2,3,5,6)           -179.0094         estimate D2E/DX2                !
 ! D22   D(2,3,5,7)              0.9718         estimate D2E/DX2                !
 ! D23   D(4,3,5,6)              1.1981         estimate D2E/DX2                !
 ! D24   D(4,3,5,7)           -178.8207         estimate D2E/DX2                !
 ! D25   D(3,5,7,8)            176.797          estimate D2E/DX2                !
 ! D26   D(3,5,7,9)             -1.6516         estimate D2E/DX2                !
 ! D27   D(6,5,7,8)             -3.2222         estimate D2E/DX2                !
 ! D28   D(6,5,7,9)            178.3291         estimate D2E/DX2                !
 ! D29   D(5,7,9,2)              1.7472         estimate D2E/DX2                !
 ! D30   D(5,7,9,10)           174.7209         estimate D2E/DX2                !
 ! D31   D(8,7,9,2)           -176.7429         estimate D2E/DX2                !
 ! D32   D(8,7,9,10)            -3.7692         estimate D2E/DX2                !
 ! D33   D(2,9,10,18)           38.2167         estimate D2E/DX2                !
 ! D34   D(2,9,10,21)         -149.2588         estimate D2E/DX2                !
 ! D35   D(7,9,10,18)         -134.0662         estimate D2E/DX2                !
 ! D36   D(7,9,10,21)           38.4584         estimate D2E/DX2                !
 ! D37   D(9,10,18,11)         -38.3516         estimate D2E/DX2                !
 ! D38   D(9,10,18,16)         133.9795         estimate D2E/DX2                !
 ! D39   D(21,10,18,11)        149.1223         estimate D2E/DX2                !
 ! D40   D(21,10,18,16)        -38.5466         estimate D2E/DX2                !
 ! D41   D(9,10,21,22)           5.644          estimate D2E/DX2                !
 ! D42   D(9,10,21,29)        -177.0728         estimate D2E/DX2                !
 ! D43   D(18,10,21,22)        177.1106         estimate D2E/DX2                !
 ! D44   D(18,10,21,29)         -5.6062         estimate D2E/DX2                !
 ! D45   D(1,11,12,13)          -3.9072         estimate D2E/DX2                !
 ! D46   D(1,11,12,14)         175.8862         estimate D2E/DX2                !
 ! D47   D(18,11,12,13)       -179.943          estimate D2E/DX2                !
 ! D48   D(18,11,12,14)         -0.1496         estimate D2E/DX2                !
 ! D49   D(1,11,18,10)          -1.0846         estimate D2E/DX2                !
 ! D50   D(1,11,18,16)        -175.1616         estimate D2E/DX2                !
 ! D51   D(12,11,18,10)        175.2767         estimate D2E/DX2                !
 ! D52   D(12,11,18,16)          1.1996         estimate D2E/DX2                !
 ! D53   D(11,12,14,15)        178.9889         estimate D2E/DX2                !
 ! D54   D(11,12,14,16)         -0.9781         estimate D2E/DX2                !
 ! D55   D(13,12,14,15)         -1.2429         estimate D2E/DX2                !
 ! D56   D(13,12,14,16)        178.7901         estimate D2E/DX2                !
 ! D57   D(12,14,16,17)       -176.8002         estimate D2E/DX2                !
 ! D58   D(12,14,16,18)          1.6774         estimate D2E/DX2                !
 ! D59   D(15,14,16,17)          3.2335         estimate D2E/DX2                !
 ! D60   D(15,14,16,18)       -178.2888         estimate D2E/DX2                !
 ! D61   D(14,16,18,10)       -174.8011         estimate D2E/DX2                !
 ! D62   D(14,16,18,11)         -1.7829         estimate D2E/DX2                !
 ! D63   D(17,16,18,10)          3.7173         estimate D2E/DX2                !
 ! D64   D(17,16,18,11)        176.7355         estimate D2E/DX2                !
 ! D65   D(10,21,22,23)          1.615          estimate D2E/DX2                !
 ! D66   D(10,21,22,24)        179.7957         estimate D2E/DX2                !
 ! D67   D(29,21,22,23)       -175.7647         estimate D2E/DX2                !
 ! D68   D(29,21,22,24)          2.4161         estimate D2E/DX2                !
 ! D69   D(10,21,29,27)       -179.7904         estimate D2E/DX2                !
 ! D70   D(10,21,29,30)         -1.6203         estimate D2E/DX2                !
 ! D71   D(22,21,29,27)         -2.411          estimate D2E/DX2                !
 ! D72   D(22,21,29,30)        175.7591         estimate D2E/DX2                !
 ! D73   D(21,22,24,25)       -179.8708         estimate D2E/DX2                !
 ! D74   D(21,22,24,26)         -0.5504         estimate D2E/DX2                !
 ! D75   D(23,22,24,25)         -1.6831         estimate D2E/DX2                !
 ! D76   D(23,22,24,26)        177.6373         estimate D2E/DX2                !
 ! D77   D(22,24,26,27)         -1.3945         estimate D2E/DX2                !
 ! D78   D(22,24,26,31)        179.8982         estimate D2E/DX2                !
 ! D79   D(25,24,26,27)        177.9216         estimate D2E/DX2                !
 ! D80   D(25,24,26,31)         -0.7856         estimate D2E/DX2                !
 ! D81   D(24,26,27,28)       -177.9153         estimate D2E/DX2                !
 ! D82   D(24,26,27,29)          1.3996         estimate D2E/DX2                !
 ! D83   D(31,26,27,28)          0.7919         estimate D2E/DX2                !
 ! D84   D(31,26,27,29)       -179.8932         estimate D2E/DX2                !
 ! D85   D(26,27,29,21)          0.5402         estimate D2E/DX2                !
 ! D86   D(26,27,29,30)       -177.637          estimate D2E/DX2                !
 ! D87   D(28,27,29,21)        179.8594         estimate D2E/DX2                !
 ! D88   D(28,27,29,30)          1.6821         estimate D2E/DX2                !
 --------------------------------------------------------------------------------
 Trust Radius=3.00D-01 FncErr=5.00D-06 GrdErr=5.00D-06 EigMax=2.50D+02 EigMin=1.00D-04
 Number of steps in this run=    186 maximum allowed number of steps=    186.
 GradGradGradGradGradGradGradGradGradGradGradGradGradGradGradGradGradGrad

 Leave Link  103 at Mon Jan 31 13:52:00 2022, MaxMem= 49660559360 cpu:               0.6 elap:               0.0
 (Enter /lustre1/prg/gaussian/bin/G16_C01_Linda_AVX2/g16/l202.exe)
                          Input orientation:                          
 ---------------------------------------------------------------------
 Center     Atomic      Atomic             Coordinates (Angstroms)
 Number     Number       Type             X           Y           Z
 ---------------------------------------------------------------------
      1          5           0       -0.226459    1.026812    0.366463
      2          7           0       -0.063462    0.117158    1.618295
      3          6           0        1.048809   -0.405898    2.135222
      4          1           0        2.021194   -0.167721    1.710815
      5          6           0        0.714744   -1.245178    3.228518
      6          1           0        1.422671   -1.789411    3.846891
      7          6           0       -0.670943   -1.229853    3.345611
      8          1           0       -1.281919   -1.795257    4.042479
      9          6           0       -1.163278   -0.350078    2.345698
     10          6           0       -2.501871   -0.009279    1.917580
     11          7           0       -1.513186    0.447418   -0.288528
     12          6           0       -1.774374    0.235850   -1.578922
     13          1           0       -1.061486    0.534415   -2.343826
     14          6           0       -3.037583   -0.395268   -1.709952
     15          1           0       -3.511843   -0.671799   -2.647172
     16          6           0       -3.534609   -0.583147   -0.424714
     17          1           0       -4.456386   -1.080078   -0.138313
     18          6           0       -2.585327   -0.028326    0.473683
     19          9           0       -0.424564    2.347126    0.746029
     20          9           0        0.856740    0.876303   -0.483047
     21          6           0       -3.626401    0.153085    2.799581
     22          6           0       -3.469244    0.100324    4.206627
     23          1           0       -2.477342   -0.039565    4.633673
     24          6           0       -4.556616    0.261739    5.053379
     25          1           0       -4.405886    0.218510    6.132511
     26          6           0       -5.833553    0.492130    4.534417
     27          6           0       -6.002176    0.588139    3.150548
     28          1           0       -6.987290    0.801491    2.734377
     29          6           0       -4.921445    0.428118    2.295037
     30          1           0       -5.068829    0.545480    1.222494
     31          1           0       -6.685495    0.616763    5.202967
 ---------------------------------------------------------------------
                    Distance matrix (angstroms):
                    1          2          3          4          5
     1  B    0.000000
     2  N    1.555995   0.000000
     3  C    2.609114   1.333397   0.000000
     4  H    2.878565   2.106064   1.087374   0.000000
     5  C    3.773481   2.248195   1.418198   2.274016   0.000000
     6  H    4.771176   3.287892   2.232418   2.747895   1.086156
     7  C    3.763698   2.273124   2.258648   3.323896   1.390710
     8  H    4.753016   3.319433   3.316661   4.358450   2.225260
     9  C    2.586663   1.398935   2.222779   3.252260   2.259987
    10  C    2.942269   2.459959   3.579386   4.530560   3.686817
    11  N    1.555756   2.418004   3.628571   4.107020   4.494237
    12  C    2.608867   3.628154   4.709253   5.039005   5.612542
    13  H    2.878436   4.107135   5.039782   5.141597   6.113343
    14  C    3.773093   4.492795   5.611067   6.111027   6.260255
    15  H    4.770851   5.541479   6.613739   7.061207   7.260615
    16  C    3.763215   4.088175   5.252848   5.966574   5.642818
    17  H    4.752480   4.880249   5.994218   6.797846   6.172795
    18  C    2.586324   2.773284   4.013753   4.771788   4.467697
    19  F    1.388000   2.421570   3.417576   3.638269   4.512806
    20  F    1.384789   2.416342   2.921688   2.694248   4.277448
    21  C    4.271190   3.753833   4.755147   5.760526   4.580902
    22  C    5.110860   4.277744   4.995977   6.037039   4.502536
    23  H    4.940923   3.865732   4.337073   5.366223   3.690173
    24  C    6.426724   5.657662   6.354697   7.390856   5.778248
    25  H    7.167166   6.264588   6.791311   7.810757   6.066004
    26  C    7.006941   6.475980   7.343671   8.372884   6.899551
    27  C    6.426700   6.151256   7.192731   8.186490   6.963056
    28  H    7.167051   7.046513   8.148353   9.118105   7.984633
    29  C    5.110844   4.914741   6.030345   6.992609   5.952977
    30  H    4.940953   5.039228   6.258090   7.142516   6.378111
    31  H    8.079546   7.546575   8.383099   9.413659   7.882183
                    6          7          8          9         10
     6  H    0.000000
     7  C    2.224322   0.000000
     8  H    2.711659   1.085633   0.000000
     9  C    3.318492   1.419938   2.231969   0.000000
    10  C    4.721561   2.623237   3.032028   1.446119   0.000000
    11  N    5.542955   4.090181   4.882694   2.774452   2.460281
    12  C    6.615302   5.255176   5.997337   4.014896   3.579786
    13  H    7.063723   5.969494   6.801533   4.773293   4.530993
    14  C    7.260579   5.644133   6.175175   4.468037   3.687135
    15  H    8.232335   6.655493   7.140459   5.527026   4.721857
    16  C    6.654044   4.778510   5.147780   3.654137   2.623397
    17  H    7.137809   5.146818   5.297900   4.189006   3.032068
    18  C    5.526663   3.654655   4.190134   2.372802   1.446432
    19  F    5.489860   4.428691   5.362926   3.221731   3.352668
    20  F    5.116119   4.629074   5.673754   3.685957   4.222266
    21  C    5.510288   3.308383   3.292025   2.554635   1.438352
    22  C    5.256552   3.215775   2.899062   2.997232   2.487481
    23  H    4.346388   2.517730   2.204768   2.656692   2.716373
    24  C    6.435426   4.498864   3.997098   4.384130   3.758811
    25  H    6.574791   4.879997   4.264113   5.017744   4.630638
    26  C    7.637467   5.570550   5.117765   5.226019   4.266070
    27  C    7.827259   5.636062   5.362550   4.994294   3.758890
    28  H    8.870057   6.663048   6.403553   5.949479   4.630711
    29  C    6.897354   4.681810   4.609024   3.838225   2.487595
    30  H    7.380972   5.196233   5.269920   4.161363   2.716648
    31  H    8.565686   6.560076   6.030191   6.292348   5.356156
                   11         12         13         14         15
    11  N    0.000000
    12  C    1.333453   0.000000
    13  H    2.106146   1.087395   0.000000
    14  C    2.248189   1.418159   2.273998   0.000000
    15  H    3.287929   2.232439   2.747948   1.086174   0.000000
    16  C    2.273051   2.258623   3.323894   1.390744   2.224342
    17  H    3.319373   3.316656   4.358465   2.225313   2.711683
    18  C    1.398851   2.222751   3.252249   2.259965   3.318467
    19  F    2.421631   3.418314   3.638515   4.514470   5.491722
    20  F    2.416263   2.921281   2.694249   4.276440   5.115132
    21  C    3.753495   4.754802   5.760107   4.580752   5.510052
    22  C    4.914576   6.030218   6.992436   5.952970   6.897286
    23  H    5.039327   6.258303   7.142800   6.378242   7.381099
    24  C    6.150847   7.192285   8.185898   6.962885   7.826974
    25  H    7.046265   8.148089   9.117735   7.984560   8.869881
    26  C    6.475212   7.342719   8.371657   6.899063   7.636772
    27  C    5.656684   6.353448   7.389279   5.777574   6.434498
    28  H    6.263317   6.789624   7.808625   6.065021   6.573461
    29  C    4.276846   4.994855   6.035697   4.501870   5.255685
    30  H    3.864635   4.335578   5.364472   3.689201   4.345145
    31  H    7.545726   8.382018   9.412244   7.881619   8.564878
                   16         17         18         19         20
    16  C    0.000000
    17  H    1.085651   0.000000
    18  C    1.419887   2.231946   0.000000
    19  F    4.430521   5.365014   3.222707   0.000000
    20  F    4.627888   5.672352   3.685310   2.305578   0.000000
    21  C    3.308556   3.292535   2.554711   4.391202   5.603324
    22  C    4.681957   4.609371   3.838324   5.127761   6.427233
    23  H    5.196208   5.269832   4.161406   5.002396   6.175414
    24  C    5.636296   5.363225   4.994370   6.322654   7.767504
    25  H    6.663256   6.404070   5.949596   7.028237   8.479005
    26  C    5.570848   5.118870   5.226032   6.859304   8.371532
    27  C    4.499255   3.998627   4.384118   6.323409   7.767289
    28  H    4.880377   4.265926   5.017630   7.029359   8.478574
    29  C    3.216056   2.900367   2.997185   5.128738   6.426978
    30  H    2.518119   2.206654   2.656643   5.004213   6.175005
    31  H    6.560386   6.031374   6.292348   7.877672   9.448991
                   21         22         23         24         25
    21  C    0.000000
    22  C    1.416778   0.000000
    23  H    2.172865   1.088948   0.000000
    24  C    2.440637   1.387596   2.142503   0.000000
    25  H    3.423492   2.144830   2.456094   1.090465   0.000000
    26  C    2.827742   2.418867   3.399515   1.397487   2.160325
    27  C    2.440647   2.787295   3.875323   2.411835   3.402480
    28  H    3.423486   3.877603   4.965313   3.402540   4.307067
    29  C    1.416809   2.422914   3.414906   2.787334   3.877621
    30  H    2.172965   3.414950   4.323682   3.875378   4.965347
    31  H    3.917821   3.406416   4.296907   2.163457   2.493847
                   26         27         28         29         30
    26  C    0.000000
    27  C    1.397406   0.000000
    28  H    2.160314   1.090489   0.000000
    29  C    2.418855   1.387619   2.144794   0.000000
    30  H    3.399483   2.142510   2.455977   1.088965   0.000000
    31  H    1.090091   2.163370   2.493821   3.406393   4.296843
                   31
    31  H    0.000000
 Symmetry turned off by external request.
 Stoichiometry    C15H11BF2N2
 Framework group  C1[X(C15H11BF2N2)]
 Deg. of freedom    87
 Full point group                 C1      NOp   1
 Rotational constants (GHZ):           0.5560776           0.2855457           0.2176557
 Leave Link  202 at Mon Jan 31 13:52:00 2022, MaxMem= 49660559360 cpu:               0.6 elap:               0.0
 (Enter /lustre1/prg/gaussian/bin/G16_C01_Linda_AVX2/g16/l301.exe)
 Standard basis: CC-pVDZ (5D, 7F)
 Ernie: Thresh=  0.10000D-02 Tol=  0.10000D-05 Strict=F.
 Ernie:  40 primitive shells out of 495 were deleted.
   335 basis functions,   737 primitive gaussians,   355 cartesian basis functions
    69 alpha electrons       69 beta electrons
       nuclear repulsion energy      1473.2176186076 Hartrees.
 IExCor= 4336 DFT=T Ex+Corr=M062X ExCW=0 ScaHFX=  0.540000
 ScaDFX=  1.000000  1.000000  1.000000  1.000000 ScalE2=  1.000000  1.000000
 IRadAn=      5 IRanWt=     -1 IRanGd=            0 ICorTp=0 IEmpDi=  4
 NAtoms=   31 NActive=   31 NUniq=   31 SFac= 1.00D+00 NAtFMM=   60 NAOKFM=F Big=F
 Integral buffers will be    131072 words long.
 Regular integral format.
 Two-electron integral symmetry is turned off.
 ------------------------------------------------------------------------------
 Polarizable Continuum Model (PCM)
 =================================
 Model                : C-PCM.
 Atomic radii         : UFF (Universal Force Field).
 Polarization charges : Total charges.
 Charge compensation  : None.
 Solution method      : On-the-fly selection.
 Cavity type          : Scaled VdW (van der Waals Surface) (Alpha=1.100).
 Cavity algorithm     : GePol (No added spheres)
                        Default sphere list used, NSphG=   31.
                        Lebedev-Laikov grids with approx.  5.0 points / Ang**2.
                        Smoothing algorithm: York/Karplus (Gamma=1.0000).
                        Polarization charges: spherical gaussians, with
                                              point-specific exponents (IZeta= 3).
                        Self-potential: point-specific (ISelfS= 7).
                        Self-field    : sphere-specific E.n sum rule (ISelfD= 2).
 1st derivatives      : Analytical E(r).r(x)/FMM algorithm (CHGder, D1EAlg=3).
                        Cavity 1st derivative terms included.
 Solvent              : DiMethylSulfoxide, Eps=  46.826000 Eps(inf)=   2.007889
 ------------------------------------------------------------------------------
 GePol: Number of generator spheres                  =      31
 GePol: Total number of spheres                      =      31
 GePol: Number of exposed spheres                    =      31 (100.00%)
 GePol: Number of points                             =    2486
 GePol: Average weight of points                     =       0.13
 GePol: Minimum weight of points                     =   0.57D-10
 GePol: Maximum weight of points                     =    0.20577
 GePol: Number of points with low weight             =     173
 GePol: Fraction of low-weight points (<1% of avg)   =       6.96%
 GePol: Cavity surface area                          =    312.036 Ang**2
 GePol: Cavity volume                                =    344.106 Ang**3
 Leave Link  301 at Mon Jan 31 13:52:00 2022, MaxMem= 49660559360 cpu:               2.9 elap:               0.1
Warning: Permanently added 'fizika348.fizika.bullx' (ECDSA) to the list of known hosts.
 (Enter /lustre1/prg/gaussian/bin/G16_C01_Linda_AVX2/g16/linda-exe/l302.exel)
 NPDir=0 NMtPBC=     1 NCelOv=     1 NCel=       1 NClECP=     1 NCelD=      1
         NCelK=      1 NCelE2=     1 NClLst=     1 CellRange=     0.0.
 One-electron integrals computed using PRISM.
 NBasis=   335 RedAO= T EigKep=  3.00D-04  NBF=   335
 NBsUse=   335 1.00D-06 EigRej= -1.00D+00 NBFU=   335
 Precomputing XC quadrature grid using
 IXCGrd= 4 IRadAn=           5 IRanWt=          -1 IRanGd=           0 AccXCQ= 0.00D+00.
 Generated NRdTot=       0 NPtTot=           0 NUsed=           0 NTot=          32
 NSgBfM=   354   354   354   354   354 MxSgAt=    31 MxSgA2=    31.
 Leave Link  302 at Mon Jan 31 13:52:02 2022, MaxMem= 49660559360 cpu:              19.6 elap:               0.6
 (Enter /lustre1/prg/gaussian/bin/G16_C01_Linda_AVX2/g16/l303.exe)
 DipDrv:  MaxL=1.
 Leave Link  303 at Mon Jan 31 13:52:02 2022, MaxMem= 49660559360 cpu:               3.6 elap:               0.1
 (Enter /lustre1/prg/gaussian/bin/G16_C01_Linda_AVX2/g16/l308.exe)
 Leave Link  308 at Mon Jan 31 13:52:02 2022, MaxMem= 49660559360 cpu:               3.3 elap:               0.1
 (Enter /lustre1/prg/gaussian/bin/G16_C01_Linda_AVX2/g16/linda-exe/l401.exel)
 ExpMin= 9.54D-02 ExpMax= 1.47D+04 ExpMxC= 5.03D+02 IAcc=3 IRadAn=         5 AccDes= 0.00D+00
 Harris functional with IExCor= 1009 and IRadAn=       5 diagonalized for initial guess.
 HarFok:  IExCor= 1009 AccDes= 0.00D+00 IRadAn=         5 IDoV= 1 UseB2=F ITyADJ=14
 ICtDFT=  3500011 ScaDFX=  1.000000  1.000000  1.000000  1.000000
 FoFCou: FMM=F IPFlag=           0 FMFlag=      100000 FMFlg1=           0
         NFxFlg=           0 DoJE=T BraDBF=F KetDBF=T FulRan=T
         wScrn=  0.000000 ICntrl=       500 IOpCl=  0 I1Cent=   200000004 NGrid=           0
         NMat0=    1 NMatS0=      1 NMatT0=    0 NMatD0=    1 NMtDS0=    0 NMtDT0=    0
 Symmetry not used in FoFCou.
 Harris En= -911.547355225092    
 JPrj=0 DoOrth=F DoCkMO=F.
 Leave Link  401 at Mon Jan 31 13:52:04 2022, MaxMem= 49660559360 cpu:              38.3 elap:               1.2
 (Enter /lustre1/prg/gaussian/bin/G16_C01_Linda_AVX2/g16/linda-exe/l502.exel)
 Two-electron integral symmetry not used.
 Closed shell SCF:
 Using DIIS extrapolation, IDIIS=  1040.
 NGot= 49660559360 LenX= 49660292335 LenY= 49660165869
 Requested convergence on RMS density matrix=1.00D-08 within 128 cycles.
 Requested convergence on MAX density matrix=1.00D-06.
 Requested convergence on             energy=1.00D-06.
 No special actions if energy rises.
 Fock matrices will be formed incrementally for  20 cycles.

 Cycle   1  Pass 1  IDiag  1:
 FoFJK:  IHMeth= 1 ICntrl=       0 DoSepK=F KAlg= 0 I1Cent=           0 FoldK=F
 IRaf= 880000000 NMat=       1 IRICut=       1 DoRegI=T DoRafI=F ISym2E= 0 IDoP0=0 IntGTp=1.
 FoFCou: FMM=F IPFlag=           0 FMFlag=      100000 FMFlg1=           0
         NFxFlg=           0 DoJE=F BraDBF=F KetDBF=F FulRan=T
         wScrn=  0.000000 ICntrl=         0 IOpCl=  0 I1Cent=           0 NGrid=           0
         NMat0=    1 NMatS0=      1 NMatT0=    0 NMatD0=    1 NMtDS0=    0 NMtDT0=    0
 Symmetry not used in FoFCou.
 Inv3:  Mode=1 IEnd=    18540588.
 Iteration    1 A*A^-1 deviation from unit magnitude is 3.77D-15 for   1955.
 Iteration    1 A*A^-1 deviation from orthogonality  is 2.18D-15 for   1617    348.
 Iteration    1 A^-1*A deviation from unit magnitude is 3.77D-15 for   1955.
 Iteration    1 A^-1*A deviation from orthogonality  is 2.68D-15 for   2188   1124.
 E= -911.842022426996    
 DIIS: error= 3.06D-02 at cycle   1 NSaved=   1.
 NSaved= 1 IEnMin= 1 EnMin= -911.842022426996     IErMin= 1 ErrMin= 3.06D-02
 ErrMax= 3.06D-02  0.00D+00 EMaxC= 1.00D-01 BMatC= 3.37D-01 BMatP= 3.37D-01
 IDIUse=3 WtCom= 6.94D-01 WtEn= 3.06D-01
 Coeff-Com:  0.100D+01
 Coeff-En:   0.100D+01
 Coeff:      0.100D+01
 Gap=     0.138 Goal=   None    Shift=    0.000
 GapD=    0.138 DampG=1.000 DampE=0.500 DampFc=0.5000 IDamp=-1.
 Damping current iteration by 5.00D-01
 RMSDP=3.69D-03 MaxDP=9.92D-02              OVMax= 1.59D-01

 Cycle   2  Pass 1  IDiag  1:
 RMSU=  1.77D-03    CP:  9.73D-01
 E= -912.000171109907     Delta-E=       -0.158148682911 Rises=F Damp=T
 DIIS: error= 7.93D-03 at cycle   2 NSaved=   2.
 NSaved= 2 IEnMin= 2 EnMin= -912.000171109907     IErMin= 2 ErrMin= 7.93D-03
 ErrMax= 7.93D-03  0.00D+00 EMaxC= 1.00D-01 BMatC= 3.00D-02 BMatP= 3.37D-01
 IDIUse=3 WtCom= 9.21D-01 WtEn= 7.93D-02
 Coeff-Com: -0.743D-01 0.107D+01
 Coeff-En:   0.000D+00 0.100D+01
 Coeff:     -0.684D-01 0.107D+01
 Gap=     0.163 Goal=   None    Shift=    0.000
 RMSDP=1.33D-03 MaxDP=7.00D-02 DE=-1.58D-01 OVMax= 1.23D-01

 Cycle   3  Pass 1  IDiag  1:
 RMSU=  1.10D-03    CP:  9.52D-01  1.36D+00
 E= -912.145250486586     Delta-E=       -0.145079376679 Rises=F Damp=F
 DIIS: error= 7.62D-03 at cycle   3 NSaved=   3.
 NSaved= 3 IEnMin= 3 EnMin= -912.145250486586     IErMin= 3 ErrMin= 7.62D-03
 ErrMax= 7.62D-03  0.00D+00 EMaxC= 1.00D-01 BMatC= 1.63D-02 BMatP= 3.00D-02
 IDIUse=3 WtCom= 9.24D-01 WtEn= 7.62D-02
 Coeff-Com: -0.106D+00 0.480D+00 0.625D+00
 Coeff-En:   0.000D+00 0.000D+00 0.100D+01
 Coeff:     -0.975D-01 0.444D+00 0.654D+00
 Gap=     0.147 Goal=   None    Shift=    0.000
 RMSDP=5.01D-04 MaxDP=2.56D-02 DE=-1.45D-01 OVMax= 5.27D-02

 Cycle   4  Pass 1  IDiag  1:
 RMSU=  3.32D-04    CP:  9.55D-01  1.41D+00  6.72D-01
 E= -912.158990131359     Delta-E=       -0.013739644773 Rises=F Damp=F
 DIIS: error= 3.71D-03 at cycle   4 NSaved=   4.
 NSaved= 4 IEnMin= 4 EnMin= -912.158990131359     IErMin= 4 ErrMin= 3.71D-03
 ErrMax= 3.71D-03  0.00D+00 EMaxC= 1.00D-01 BMatC= 2.93D-03 BMatP= 1.63D-02
 IDIUse=3 WtCom= 9.63D-01 WtEn= 3.71D-02
 Coeff-Com: -0.322D-01 0.884D-01 0.335D+00 0.609D+00
 Coeff-En:   0.000D+00 0.000D+00 0.143D+00 0.857D+00
 Coeff:     -0.310D-01 0.851D-01 0.328D+00 0.618D+00
 Gap=     0.150 Goal=   None    Shift=    0.000
 RMSDP=1.66D-04 MaxDP=8.50D-03 DE=-1.37D-02 OVMax= 1.88D-02

 Cycle   5  Pass 1  IDiag  1:
 RMSU=  6.60D-05    CP:  9.54D-01  1.40D+00  7.67D-01  6.75D-01
 E= -912.161960156138     Delta-E=       -0.002970024779 Rises=F Damp=F
 DIIS: error= 3.61D-04 at cycle   5 NSaved=   5.
 NSaved= 5 IEnMin= 5 EnMin= -912.161960156138     IErMin= 5 ErrMin= 3.61D-04
 ErrMax= 3.61D-04  0.00D+00 EMaxC= 1.00D-01 BMatC= 9.04D-05 BMatP= 2.93D-03
 IDIUse=3 WtCom= 9.96D-01 WtEn= 3.61D-03
 Coeff-Com: -0.692D-02 0.997D-02 0.972D-01 0.252D+00 0.648D+00
 Coeff-En:   0.000D+00 0.000D+00 0.000D+00 0.000D+00 0.100D+01
 Coeff:     -0.689D-02 0.993D-02 0.969D-01 0.251D+00 0.649D+00
 Gap=     0.150 Goal=   None    Shift=    0.000
 RMSDP=2.82D-05 MaxDP=1.68D-03 DE=-2.97D-03 OVMax= 2.85D-03

 Cycle   6  Pass 1  IDiag  1:
 RMSU=  2.00D-05    CP:  9.54D-01  1.41D+00  7.69D-01  7.08D-01  7.78D-01
 E= -912.162041814205     Delta-E=       -0.000081658068 Rises=F Damp=F
 DIIS: error= 6.58D-05 at cycle   6 NSaved=   6.
 NSaved= 6 IEnMin= 6 EnMin= -912.162041814205     IErMin= 6 ErrMin= 6.58D-05
 ErrMax= 6.58D-05  0.00D+00 EMaxC= 1.00D-01 BMatC= 4.91D-06 BMatP= 9.04D-05
 IDIUse=1 WtCom= 1.00D+00 WtEn= 0.00D+00
 Coeff-Com: -0.837D-03-0.101D-02 0.166D-01 0.568D-01 0.246D+00 0.682D+00
 Coeff:     -0.837D-03-0.101D-02 0.166D-01 0.568D-01 0.246D+00 0.682D+00
 Gap=     0.150 Goal=   None    Shift=    0.000
 RMSDP=7.03D-06 MaxDP=2.85D-04 DE=-8.17D-05 OVMax= 5.65D-04

 Cycle   7  Pass 1  IDiag  1:
 RMSU=  5.62D-06    CP:  9.54D-01  1.41D+00  7.69D-01  7.12D-01  8.31D-01
                    CP:  9.07D-01
 E= -912.162046904509     Delta-E=       -0.000005090304 Rises=F Damp=F
 DIIS: error= 2.04D-05 at cycle   7 NSaved=   7.
 NSaved= 7 IEnMin= 7 EnMin= -912.162046904509     IErMin= 7 ErrMin= 2.04D-05
 ErrMax= 2.04D-05  0.00D+00 EMaxC= 1.00D-01 BMatC= 2.34D-07 BMatP= 4.91D-06
 IDIUse=1 WtCom= 1.00D+00 WtEn= 0.00D+00
 Coeff-Com:  0.579D-03-0.138D-02-0.669D-02-0.145D-01-0.120D-01 0.109D+00
 Coeff-Com:  0.925D+00
 Coeff:      0.579D-03-0.138D-02-0.669D-02-0.145D-01-0.120D-01 0.109D+00
 Coeff:      0.925D+00
 Gap=     0.150 Goal=   None    Shift=    0.000
 RMSDP=3.21D-06 MaxDP=9.51D-05 DE=-5.09D-06 OVMax= 3.96D-04

 Cycle   8  Pass 1  IDiag  1:
 RMSU=  1.90D-06    CP:  9.54D-01  1.41D+00  7.69D-01  7.15D-01  8.45D-01
                    CP:  1.01D+00  1.09D+00
 E= -912.162047287723     Delta-E=       -0.000000383213 Rises=F Damp=F
 DIIS: error= 1.78D-05 at cycle   8 NSaved=   8.
 NSaved= 8 IEnMin= 8 EnMin= -912.162047287723     IErMin= 8 ErrMin= 1.78D-05
 ErrMax= 1.78D-05  0.00D+00 EMaxC= 1.00D-01 BMatC= 1.00D-07 BMatP= 2.34D-07
 IDIUse=1 WtCom= 1.00D+00 WtEn= 0.00D+00
 Coeff-Com:  0.384D-03-0.592D-03-0.495D-02-0.129D-01-0.299D-01-0.194D-01
 Coeff-Com:  0.469D+00 0.598D+00
 Coeff:      0.384D-03-0.592D-03-0.495D-02-0.129D-01-0.299D-01-0.194D-01
 Coeff:      0.469D+00 0.598D+00
 Gap=     0.150 Goal=   None    Shift=    0.000
 RMSDP=1.16D-06 MaxDP=4.59D-05 DE=-3.83D-07 OVMax= 1.38D-04

 Cycle   9  Pass 1  IDiag  1:
 RMSU=  7.60D-07    CP:  9.54D-01  1.41D+00  7.70D-01  7.15D-01  8.53D-01
                    CP:  1.02D+00  1.17D+00  7.54D-01
 E= -912.162047402916     Delta-E=       -0.000000115193 Rises=F Damp=F
 DIIS: error= 3.34D-06 at cycle   9 NSaved=   9.
 NSaved= 9 IEnMin= 9 EnMin= -912.162047402916     IErMin= 9 ErrMin= 3.34D-06
 ErrMax= 3.34D-06  0.00D+00 EMaxC= 1.00D-01 BMatC= 4.53D-09 BMatP= 1.00D-07
 IDIUse=1 WtCom= 1.00D+00 WtEn= 0.00D+00
 Coeff-Com:  0.581D-04-0.407D-04-0.794D-03-0.241D-02-0.735D-02-0.174D-01
 Coeff-Com:  0.494D-01 0.180D+00 0.799D+00
 Coeff:      0.581D-04-0.407D-04-0.794D-03-0.241D-02-0.735D-02-0.174D-01
 Coeff:      0.494D-01 0.180D+00 0.799D+00
 Gap=     0.150 Goal=   None    Shift=    0.000
 RMSDP=3.88D-07 MaxDP=1.32D-05 DE=-1.15D-07 OVMax= 4.95D-05

 Cycle  10  Pass 1  IDiag  1:
 RMSU=  2.55D-07    CP:  9.54D-01  1.41D+00  7.70D-01  7.15D-01  8.53D-01
                    CP:  1.03D+00  1.20D+00  8.53D-01  9.66D-01
 E= -912.162047410345     Delta-E=       -0.000000007429 Rises=F Damp=F
 DIIS: error= 1.56D-06 at cycle  10 NSaved=  10.
 NSaved=10 IEnMin=10 EnMin= -912.162047410345     IErMin=10 ErrMin= 1.56D-06
 ErrMax= 1.56D-06  0.00D+00 EMaxC= 1.00D-01 BMatC= 1.18D-09 BMatP= 4.53D-09
 IDIUse=1 WtCom= 1.00D+00 WtEn= 0.00D+00
 Coeff-Com: -0.241D-04 0.588D-04 0.293D-03 0.611D-03 0.524D-03-0.640D-02
 Coeff-Com: -0.427D-01-0.785D-02 0.362D+00 0.694D+00
 Coeff:     -0.241D-04 0.588D-04 0.293D-03 0.611D-03 0.524D-03-0.640D-02
 Coeff:     -0.427D-01-0.785D-02 0.362D+00 0.694D+00
 Gap=     0.150 Goal=   None    Shift=    0.000
 RMSDP=1.51D-07 MaxDP=6.11D-06 DE=-7.43D-09 OVMax= 1.78D-05

 Cycle  11  Pass 1  IDiag  1:
 RMSU=  9.36D-08    CP:  9.54D-01  1.41D+00  7.70D-01  7.15D-01  8.54D-01
                    CP:  1.03D+00  1.21D+00  8.77D-01  1.08D+00  9.46D-01
 E= -912.162047411897     Delta-E=       -0.000000001552 Rises=F Damp=F
 DIIS: error= 4.15D-07 at cycle  11 NSaved=  11.
 NSaved=11 IEnMin=11 EnMin= -912.162047411897     IErMin=11 ErrMin= 4.15D-07
 ErrMax= 4.15D-07  0.00D+00 EMaxC= 1.00D-01 BMatC= 1.24D-10 BMatP= 1.18D-09
 IDIUse=1 WtCom= 1.00D+00 WtEn= 0.00D+00
 Coeff-Com: -0.196D-04 0.311D-04 0.249D-03 0.650D-03 0.144D-02 0.602D-04
 Coeff-Com: -0.257D-01-0.343D-01 0.417D-01 0.287D+00 0.729D+00
 Coeff:     -0.196D-04 0.311D-04 0.249D-03 0.650D-03 0.144D-02 0.602D-04
 Coeff:     -0.257D-01-0.343D-01 0.417D-01 0.287D+00 0.729D+00
 Gap=     0.150 Goal=   None    Shift=    0.000
 RMSDP=5.74D-08 MaxDP=1.49D-06 DE=-1.55D-09 OVMax= 9.90D-06

 Cycle  12  Pass 1  IDiag  1:
 RMSU=  3.32D-08    CP:  9.54D-01  1.41D+00  7.70D-01  7.15D-01  8.54D-01
                    CP:  1.03D+00  1.21D+00  8.82D-01  1.12D+00  1.06D+00
                    CP:  9.89D-01
 E= -912.162047412088     Delta-E=       -0.000000000191 Rises=F Damp=F
 DIIS: error= 1.27D-07 at cycle  12 NSaved=  12.
 NSaved=12 IEnMin=12 EnMin= -912.162047412088     IErMin=12 ErrMin= 1.27D-07
 ErrMax= 1.27D-07  0.00D+00 EMaxC= 1.00D-01 BMatC= 6.73D-12 BMatP= 1.24D-10
 IDIUse=1 WtCom= 1.00D+00 WtEn= 0.00D+00
 Coeff-Com: -0.166D-05 0.133D-05 0.224D-04 0.663D-04 0.236D-03 0.583D-03
 Coeff-Com: -0.475D-03-0.599D-02-0.158D-01-0.284D-02 0.131D+00 0.893D+00
 Coeff:     -0.166D-05 0.133D-05 0.224D-04 0.663D-04 0.236D-03 0.583D-03
 Coeff:     -0.475D-03-0.599D-02-0.158D-01-0.284D-02 0.131D+00 0.893D+00
 Gap=     0.150 Goal=   None    Shift=    0.000
 RMSDP=1.93D-08 MaxDP=5.71D-07 DE=-1.91D-10 OVMax= 4.12D-06

 Cycle  13  Pass 1  IDiag  1:
 RMSU=  1.12D-08    CP:  9.54D-01  1.41D+00  7.70D-01  7.15D-01  8.54D-01
                    CP:  1.03D+00  1.21D+00  8.84D-01  1.13D+00  1.08D+00
                    CP:  1.11D+00  1.16D+00
 E= -912.162047412104     Delta-E=       -0.000000000015 Rises=F Damp=F
 DIIS: error= 7.92D-08 at cycle  13 NSaved=  13.
 NSaved=13 IEnMin=13 EnMin= -912.162047412104     IErMin=13 ErrMin= 7.92D-08
 ErrMax= 7.92D-08  0.00D+00 EMaxC= 1.00D-01 BMatC= 1.78D-12 BMatP= 6.73D-12
 IDIUse=1 WtCom= 1.00D+00 WtEn= 0.00D+00
 Coeff-Com:  0.177D-05-0.331D-05-0.221D-04-0.581D-04-0.848D-04 0.204D-03
 Coeff-Com:  0.275D-02 0.119D-02-0.119D-01-0.416D-01-0.498D-01 0.323D+00
 Coeff-Com:  0.776D+00
 Coeff:      0.177D-05-0.331D-05-0.221D-04-0.581D-04-0.848D-04 0.204D-03
 Coeff:      0.275D-02 0.119D-02-0.119D-01-0.416D-01-0.498D-01 0.323D+00
 Coeff:      0.776D+00
 Gap=     0.150 Goal=   None    Shift=    0.000
 RMSDP=9.70D-09 MaxDP=3.45D-07 DE=-1.55D-11 OVMax= 2.35D-06

 Error on total polarization charges =  0.01132
 SCF Done:  E(RM062X) =  -912.162047412     A.U. after   13 cycles
            NFock= 13  Conv=0.97D-08     -V/T= 2.0062
 KE= 9.065162630063D+02 PE=-5.076434790929D+03 EE= 1.784538861903D+03
 Leave Link  502 at Mon Jan 31 13:52:43 2022, MaxMem= 49660559360 cpu:            1171.8 elap:              37.8
 (Enter /lustre1/prg/gaussian/bin/G16_C01_Linda_AVX2/g16/l801.exe)
 DoSCS=F DFT=T ScalE2(SS,OS)=  1.000000  1.000000
 ExpMin= 9.54D-02 ExpMax= 1.47D+04 ExpMxC= 5.03D+02 IAcc=3 IRadAn=         5 AccDes= 0.00D+00
 HarFok:  IExCor=  205 AccDes= 0.00D+00 IRadAn=         5 IDoV=-2 UseB2=F ITyADJ=14
 ICtDFT= 12500011 ScaDFX=  1.000000  1.000000  1.000000  1.000000
 Largest valence mixing into a core orbital is  7.93D-05
 Largest core mixing into a valence orbital is  4.83D-05
 Range of M.O.s used for correlation:    21   335
 NBasis=   335 NAE=    69 NBE=    69 NFC=    20 NFV=     0
 NROrb=    315 NOA=    49 NOB=    49 NVA=   266 NVB=   266

 **** Warning!!: The largest alpha MO coefficient is  0.13480117D+02

 Leave Link  801 at Mon Jan 31 13:52:43 2022, MaxMem= 49660559360 cpu:               4.0 elap:               0.1
 (Enter /lustre1/prg/gaussian/bin/G16_C01_Linda_AVX2/g16/linda-exe/l914.exel)
 RHF ground state
 Keep R1, R2, and R3 ints in memory in canonical form, NReq=5189770173.
 FoFCou: FMM=F IPFlag=           0 FMFlag=           0 FMFlg1=           0
         NFxFlg=           0 DoJE=F BraDBF=F KetDBF=F FulRan=T
         wScrn=  0.000000 ICntrl=       600 IOpCl=  0 I1Cent=           0 NGrid=           0
         NMat0=    1 NMatS0=  56280 NMatT0=    0 NMatD0=    1 NMtDS0=    0 NMtDT0=    0
 Symmetry not used in FoFCou.
 Two-electron integral symmetry not used.
 MDV= 49660559360 DFT=T DoStab=F Mixed=T DoRPA=T DoScal=F NonHer=T
 NEqPCM:  Using equilibrium solvation (IEInf=0, Eps=  46.8260, EpsInf=   2.0079)
 Making orbital integer symmetry assigments:
    24 initial guesses have been made.
 Convergence on wavefunction:    0.000001000000000
 Davidson Disk Diagonalization:  ConvIn= 1.00D-06 SkipCon=T Conv= 1.00D-06.
 Max sub-space:  2000 roots to seek:    24 dimension of matrix:        26068
 Iteration     1 Dimension    24 NMult     0 NNew     24
 CISAX will form    24 AO SS matrices at one time.
 NMat=    24 NSing=    24 JSym2X= 0.
 Excitation Energies [eV] at current iteration:
 Root      1 :     2.332176284512864
 Root      2 :     3.533182740894917
 Root      3 :     3.546684630451209
 Root      4 :     3.999198053518861
 Root      5 :     4.107561120584030
 Root      6 :     5.528732639239458
 Root      7 :     5.606873100694297
 Root      8 :     5.713201135413425
 Root      9 :     5.763694751661451
 Root     10 :     6.083949383136924
 Root     11 :     6.201210036915495
 Root     12 :     6.374355564019441
 Root     13 :     6.804856834977389
 Root     14 :     6.921468727250430
 Root     15 :     6.966023323863401
 Root     16 :     7.071907838929441
 Root     17 :     7.139333293728113
 Root     18 :     7.294469241444841
 Root     19 :     7.334048368808548
 Root     20 :     7.475110659033031
 Root     21 :     7.522824019244993
 Root     22 :     7.699345561879983
 Root     23 :     7.713560485511300
 Root     24 :     8.047727981093843
 Iteration     2 Dimension    36 NMult    24 NNew     12
 CISAX will form    12 AO SS matrices at one time.
 NMat=    12 NSing=    12 JSym2X= 0.
 Root      1 not converged, maximum delta is    0.049854785080656
 Root      2 not converged, maximum delta is    0.032244030449870
 Root      3 not converged, maximum delta is    0.038453292283226
 Root      4 not converged, maximum delta is    0.043524140650758
 Root      5 not converged, maximum delta is    0.052716653435050
 Root      6 not converged, maximum delta is    0.351855860309487
 Excitation Energies [eV] at current iteration:
 Root      1 :     1.915630190921998   Change is   -0.416546093590866
 Root      2 :     3.114345921302051   Change is   -0.418836819592866
 Root      3 :     3.298024883933825   Change is   -0.248659746517384
 Root      4 :     3.736653004661564   Change is   -0.262545048857297
 Root      5 :     3.883709181110878   Change is   -0.223851939473152
 Root      6 :     5.420310846120616   Change is   -0.108421793118842
 Iteration     3 Dimension    48 NMult    36 NNew     12
 CISAX will form    12 AO SS matrices at one time.
 NMat=    12 NSing=    12 JSym2X= 0.
 Root      1 not converged, maximum delta is    0.011495883636889
 Root      2 not converged, maximum delta is    0.013822075827271
 Root      3 not converged, maximum delta is    0.007595620354844
 Root      4 not converged, maximum delta is    0.008810893776421
 Root      5 not converged, maximum delta is    0.021067204871596
 Root      6 not converged, maximum delta is    0.350441109397086
 Excitation Energies [eV] at current iteration:
 Root      1 :     1.895222569523243   Change is   -0.020407621398755
 Root      2 :     3.095696000476452   Change is   -0.018649920825599
 Root      3 :     3.289523004191235   Change is   -0.008501879742590
 Root      4 :     3.727702677356021   Change is   -0.008950327305543
 Root      5 :     3.870795054993493   Change is   -0.012914126117385
 Root      6 :     5.263890578153021   Change is   -0.156420267967595
 Iteration     4 Dimension    60 NMult    48 NNew     12
 CISAX will form    12 AO SS matrices at one time.
 NMat=    12 NSing=    12 JSym2X= 0.
 Root      1 not converged, maximum delta is    0.004068158662822
 Root      2 not converged, maximum delta is    0.004952227655687
 Root      3 not converged, maximum delta is    0.002832248288078
 Root      4 not converged, maximum delta is    0.002626717179878
 Root      5 not converged, maximum delta is    0.005708804834926
 Root      6 not converged, maximum delta is    0.021391957812353
 Excitation Energies [eV] at current iteration:
 Root      1 :     1.894097559426705   Change is   -0.001125010096538
 Root      2 :     3.093630554399696   Change is   -0.002065446076756
 Root      3 :     3.288709602953877   Change is   -0.000813401237359
 Root      4 :     3.726567717111566   Change is   -0.001134960244455
 Root      5 :     3.868963855121965   Change is   -0.001831199871528
 Root      6 :     5.244875064553800   Change is   -0.019015513599222
 Iteration     5 Dimension    72 NMult    60 NNew     12
 CISAX will form    12 AO SS matrices at one time.
 NMat=    12 NSing=    12 JSym2X= 0.
 Root      1 not converged, maximum delta is    0.000521038399778
 Root      2 not converged, maximum delta is    0.000537117187617
 Root      3 not converged, maximum delta is    0.000598488175842
 Root      4 not converged, maximum delta is    0.001388831977285
 Root      5 not converged, maximum delta is    0.000457263712776
 Root      6 not converged, maximum delta is    0.006586024650745
 Excitation Energies [eV] at current iteration:
 Root      1 :     1.894049316878156   Change is   -0.000048242548549
 Root      2 :     3.093521572218824   Change is   -0.000108982180872
 Root      3 :     3.288656273379010   Change is   -0.000053329574867
 Root      4 :     3.726471323907277   Change is   -0.000096393204289
 Root      5 :     3.868917214693773   Change is   -0.000046640428192
 Root      6 :     5.241725449599477   Change is   -0.003149614954323
 Iteration     6 Dimension    84 NMult    72 NNew     12
 CISAX will form    12 AO SS matrices at one time.
 NMat=    12 NSing=    12 JSym2X= 0.
 Root      1 not converged, maximum delta is    0.000046171937618
 Root      2 not converged, maximum delta is    0.000084067740863
 Root      3 not converged, maximum delta is    0.000126766022754
 Root      4 not converged, maximum delta is    0.000176701913062
 Root      5 not converged, maximum delta is    0.000056882038905
 Root      6 not converged, maximum delta is    0.001322090830278
 Excitation Energies [eV] at current iteration:
 Root      1 :     1.894047506629422   Change is   -0.000001810248734
 Root      2 :     3.093516755390622   Change is   -0.000004816828202
 Root      3 :     3.288652970934646   Change is   -0.000003302444364
 Root      4 :     3.726465212756430   Change is   -0.000006111150847
 Root      5 :     3.868915850254850   Change is   -0.000001364438923
 Root      6 :     5.241487376678916   Change is   -0.000238072920562
 Iteration     7 Dimension    96 NMult    84 NNew     12
 CISAX will form    12 AO SS matrices at one time.
 NMat=    12 NSing=    12 JSym2X= 0.
 Root      1 not converged, maximum delta is    0.000009583127742
 Root      2 not converged, maximum delta is    0.000027831133503
 Root      3 not converged, maximum delta is    0.000013921149381
 Root      4 not converged, maximum delta is    0.000023796426761
 Root      5 not converged, maximum delta is    0.000015430504565
 Root      6 not converged, maximum delta is    0.000501952291183
 Excitation Energies [eV] at current iteration:
 Root      1 :     1.894047467241204   Change is   -0.000000039388218
 Root      2 :     3.093516458150728   Change is   -0.000000297239894
 Root      3 :     3.288652843870133   Change is   -0.000000127064513
 Root      4 :     3.726464907150847   Change is   -0.000000305605583
 Root      5 :     3.868915776707950   Change is   -0.000000073546900
 Root      6 :     5.241465700554794   Change is   -0.000021676124121
 Iteration     8 Dimension   108 NMult    96 NNew     12
 CISAX will form    12 AO SS matrices at one time.
 NMat=    12 NSing=    12 JSym2X= 0.
 Root      1 not converged, maximum delta is    0.000001086198408
 Root      2 not converged, maximum delta is    0.000004868027154
 Root      3 not converged, maximum delta is    0.000003651879705
 Root      4 not converged, maximum delta is    0.000003800049915
 Root      5 not converged, maximum delta is    0.000002906601211
 Root      6 not converged, maximum delta is    0.000161406779745
 Excitation Energies [eV] at current iteration:
 Root      1 :     1.894047466280520   Change is   -0.000000000960684
 Root      2 :     3.093516448246257   Change is   -0.000000009904472
 Root      3 :     3.288652840365609   Change is   -0.000000003504525
 Root      4 :     3.726464894365423   Change is   -0.000000012785424
 Root      5 :     3.868915773569952   Change is   -0.000000003137998
 Root      6 :     5.241463707086105   Change is   -0.000001993468690
 Iteration     9 Dimension   120 NMult   108 NNew     12
 CISAX will form    12 AO SS matrices at one time.
 NMat=    12 NSing=    12 JSym2X= 0.
 Root      1 has converged.
 Root      2 has converged.
 Root      3 has converged.
 Root      4 not converged, maximum delta is    0.000001983486669
 Root      5 has converged.
 Root      6 not converged, maximum delta is    0.000049942237157
 Excitation Energies [eV] at current iteration:
 Root      1 :     1.894047466267108   Change is   -0.000000000013411
 Root      2 :     3.093516447843712   Change is   -0.000000000402545
 Root      3 :     3.288652840285117   Change is   -0.000000000080491
 Root      4 :     3.726464892928405   Change is   -0.000000001437018
 Root      5 :     3.868915773480560   Change is   -0.000000000089391
 Root      6 :     5.241463532660056   Change is   -0.000000174426048
 Iteration    10 Dimension   124 NMult   120 NNew      4
 CISAX will form     4 AO SS matrices at one time.
 NMat=     4 NSing=     4 JSym2X= 0.
 Root      1 has converged.
 Root      2 has converged.
 Root      3 has converged.
 Root      4 has converged.
 Root      5 has converged.
 Root      6 not converged, maximum delta is    0.000015960233762
 Excitation Energies [eV] at current iteration:
 Root      1 :     1.894047466267108   Change is    0.000000000000000
 Root      2 :     3.093516447838636   Change is   -0.000000000005076
 Root      3 :     3.288652840285042   Change is   -0.000000000000075
 Root      4 :     3.726464892873143   Change is   -0.000000000055261
 Root      5 :     3.868915773480496   Change is   -0.000000000000064
 Root      6 :     5.241463519882756   Change is   -0.000000012777300
 Iteration    11 Dimension   126 NMult   124 NNew      2
 CISAX will form     2 AO SS matrices at one time.
 NMat=     2 NSing=     2 JSym2X= 0.
 Root      1 has converged.
 Root      2 has converged.
 Root      3 has converged.
 Root      4 has converged.
 Root      5 has converged.
 Root      6 not converged, maximum delta is    0.000009259378008
 Excitation Energies [eV] at current iteration:
 Root      1 :     1.894047466267108   Change is    0.000000000000000
 Root      2 :     3.093516447838663   Change is    0.000000000000027
 Root      3 :     3.288652840285067   Change is    0.000000000000025
 Root      4 :     3.726464892873099   Change is   -0.000000000000045
 Root      5 :     3.868915773480496   Change is    0.000000000000000
 Root      6 :     5.241463518952346   Change is   -0.000000000930410
 Iteration    12 Dimension   128 NMult   126 NNew      2
 CISAX will form     2 AO SS matrices at one time.
 NMat=     2 NSing=     2 JSym2X= 0.
 Root      1 has converged.
 Root      2 has converged.
 Root      3 has converged.
 Root      4 has converged.
 Root      5 has converged.
 Root      6 not converged, maximum delta is    0.000005189376139
 Excitation Energies [eV] at current iteration:
 Root      1 :     1.894047466267108   Change is    0.000000000000000
 Root      2 :     3.093516447838689   Change is    0.000000000000026
 Root      3 :     3.288652840285042   Change is   -0.000000000000025
 Root      4 :     3.726464892873033   Change is   -0.000000000000066
 Root      5 :     3.868915773480475   Change is   -0.000000000000021
 Root      6 :     5.241463518833241   Change is   -0.000000000119105
 Iteration    13 Dimension   130 NMult   128 NNew      2
 CISAX will form     2 AO SS matrices at one time.
 NMat=     2 NSing=     2 JSym2X= 0.
 Root      1 has converged.
 Root      2 has converged.
 Root      3 has converged.
 Root      4 has converged.
 Root      5 has converged.
 Root      6 not converged, maximum delta is    0.000002028176480
 Excitation Energies [eV] at current iteration:
 Root      1 :     1.894047466267065   Change is   -0.000000000000043
 Root      2 :     3.093516447838503   Change is   -0.000000000000186
 Root      3 :     3.288652840285042   Change is    0.000000000000000
 Root      4 :     3.726464892872923   Change is   -0.000000000000110
 Root      5 :     3.868915773480475   Change is    0.000000000000000
 Root      6 :     5.241463518808397   Change is   -0.000000000024844
 Iteration    14 Dimension   132 NMult   130 NNew      2
 CISAX will form     2 AO SS matrices at one time.
 NMat=     2 NSing=     2 JSym2X= 0.
 Root      1 has converged.
 Root      2 has converged.
 Root      3 has converged.
 Root      4 has converged.
 Root      5 has converged.
 Root      6 has converged.
 Excitation Energies [eV] at current iteration:
 Root      1 :     1.894047466266934   Change is   -0.000000000000130
 Root      2 :     3.093516447838503   Change is    0.000000000000000
 Root      3 :     3.288652840285017   Change is   -0.000000000000025
 Root      4 :     3.726464892872944   Change is    0.000000000000022
 Root      5 :     3.868915773480496   Change is    0.000000000000021
 Root      6 :     5.241463518802908   Change is   -0.000000000005489
 Convergence achieved on expansion vectors.
 ***********************************************************************
 Excited states from <AA,BB:AA,BB> singles matrix:
 ***********************************************************************
 
 1PDM for each excited state written to RWF  633
 Ground to excited state transition densities written to RWF  633
 Ground to excited state transition electric dipole moments (Au):
       state          X           Y           Z        Dip. S.      Osc.
         1        -1.5314      0.3468     -2.0153      6.5268      0.3029
         2        -2.4659      0.4984      1.9540     10.1475      0.7691
         3         0.4043     -0.0908      0.5317      0.4544      0.0366
         4         0.3237      0.2758     -0.1998      0.2208      0.0202
         5         0.3972     -0.0899      0.5233      0.4397      0.0417
         6        -0.5948      0.0916      0.4736      0.5866      0.0753
 Ground to excited state transition velocity dipole moments (Au):
       state          X           Y           Z        Dip. S.      Osc.
         1         0.1085     -0.0246      0.1428      0.0328      0.3140
         2         0.2822     -0.0600     -0.2241      0.1334      0.7825
         3        -0.0512      0.0115     -0.0674      0.0073      0.0402
         4        -0.0469     -0.0378      0.0293      0.0045      0.0218
         5        -0.0611      0.0138     -0.0805      0.0104      0.0487
         6         0.1170     -0.0202     -0.0935      0.0229      0.0791
 Ground to excited state transition magnetic dipole moments (Au):
       state          X           Y           Z
         1        -0.0533      1.3686      0.2763
         2         0.1918     -0.0302      0.2499
         3        -0.2987      0.5057      0.3141
         4        -0.1216      0.0228     -0.1615
         5        -0.1759     -1.5250     -0.1278
         6         0.0786     -0.0205      0.1019
 Ground to excited state transition velocity quadrupole moments (Au):
       state          XX          YY          ZZ          XY          XZ          YZ
         1        -0.4014      0.0425      0.3683     -0.0487     -0.1242     -0.1554
         2        -2.9206      0.0585     -1.4796      0.3115      2.8595     -0.3604
         3         0.4586     -0.0397     -0.4233      0.0366      0.1408      0.1522
         4         0.1768      0.0399      0.0658      0.1823     -0.0914     -0.1363
         5         0.9608      0.0182     -0.9849     -0.1489      0.2586      0.0314
         6        -2.1096      0.0061     -1.3457      0.2762      1.5645     -0.1878
 <0|del|b> * <b|rxdel|0> + <0|del|b> * <b|delr+rdel|0>
 Rotatory Strengths (R) in cgs (10**-40 erg-esu-cm/Gauss)
       state          XX          YY          ZZ    R(velocity)    E-M Angle
         1       -21.2793    120.7592    -99.1312      0.1163       90.00
         2       147.5363   -105.1108    -42.9598     -0.1781       90.00
         3       -56.8089    -32.7420     89.3566     -0.0648       90.00
         4        -9.5730      5.2132      4.9174      0.1859       89.55
         5        -5.8993     17.7345    -12.0246     -0.0631       90.00
         6        -6.2175      6.4857      0.0205      0.0962       90.00
 1/2[<0|r|b>*<b|rxdel|0> + (<0|rxdel|b>*<b|r|0>)*]
 Rotatory Strengths (R) in cgs (10**-40 erg-esu-cm/Gauss)
       state          XX          YY          ZZ     R(length)
         1       -57.7232   -335.6521    393.8215      0.1487
         2       334.3925     10.6423   -345.3466     -0.1040
         3        85.3995     32.4839   -118.1081     -0.0749
         4        27.8285     -4.4425    -22.8153      0.1902
         5        49.4076    -96.9324     47.2982     -0.0755
         6        33.0719      1.3277    -34.1403      0.0864
  1/2[<0|del|b>*<b|r|0> + (<0|r|b>*<b|del|0>)*] (Au)
       state          X           Y           Z        Dip. S.   Osc.(frdel)
         1        -0.1662     -0.0085     -0.2878      0.4626      0.3084
         2        -0.6958     -0.0299     -0.4379      1.1636      0.7757
         3        -0.0207     -0.0010     -0.0358      0.0576      0.0384
         4        -0.0152     -0.0104     -0.0058      0.0314      0.0210
         5        -0.0243     -0.0012     -0.0421      0.0676      0.0451
         6        -0.0696     -0.0018     -0.0443      0.1158      0.0772

 Excitation energies and oscillator strengths:
 
 Excited state symmetry could not be determined.
 Excited State   1:      Singlet-?Sym    1.8940 eV  654.60 nm  f=0.3029  <S**2>=0.000
      69 -> 70         0.70121
 This state for optimization and/or second-order correction.
 Total Energy, E(TD-HF/TD-DFT) =  -912.092442448    
 Copying the excited state density for this state as the 1-particle RhoCI density.
 
 Excited state symmetry could not be determined.
 Excited State   2:      Singlet-?Sym    3.0935 eV  400.79 nm  f=0.7691  <S**2>=0.000
      68 -> 70         0.69974
 
 Excited state symmetry could not be determined.
 Excited State   3:      Singlet-?Sym    3.2887 eV  377.01 nm  f=0.0366  <S**2>=0.000
      67 -> 70         0.70243
 
 Excited state symmetry could not be determined.
 Excited State   4:      Singlet-?Sym    3.7265 eV  332.71 nm  f=0.0202  <S**2>=0.000
      66 -> 70         0.70064
 
 Excited state symmetry could not be determined.
 Excited State   5:      Singlet-?Sym    3.8689 eV  320.46 nm  f=0.0417  <S**2>=0.000
      65 -> 70         0.69499
 
 Excited state symmetry could not be determined.
 Excited State   6:      Singlet-?Sym    5.2415 eV  236.54 nm  f=0.0753  <S**2>=0.000
      64 -> 70         0.68039
 SavETr:  write IOETrn=   770 NScale= 10 NData=  16 NLR=1 NState=    6 LETran=     118.
 The selected state is a singlet.
 CISGrd: IGrad=2 NXY=2 DFT=T
 CISAX will form     1 AO SS matrices at one time.
 NMat=     1 NSing=     1 JSym2X= 0.
 GePol: Maximum number of non-zero 1st derivatives   =     218
 Leave Link  914 at Mon Jan 31 13:56:39 2022, MaxMem= 49660559360 cpu:            6346.8 elap:             235.1
 (Enter /lustre1/prg/gaussian/bin/G16_C01_Linda_AVX2/g16/linda-exe/l1002.exel)
 Minotr:  Closed shell wavefunction.
          Computing CIS/TDA/TD derivatives.
          Using Z-Vector for PSCF gradient.
          Skipping F1 and S1 gradient terms here.
          IDoAtm=1111111111111111111111111111111
 NEqPCM:  Using equilibrium solvation (IEInf=0, Eps=  46.8260, EpsInf=   2.0079)
          Frozen-core window.
          Direct CPHF calculation.
          Differentiating once with respect to electric field.
                with respect to dipole field.
          Differentiating once with respect to nuclear coordinates.
          Requested convergence is 1.0D-10 RMS, and 1.0D-09 maximum.
          NewPWx=F KeepS1=T KeepF1=T KeepIn=T MapXYZ=F SortEE=F KeepMc=T.
 Keep R1 ints in memory in canonical form, NReq=1620843042.
 FoFCou: FMM=F IPFlag=           0 FMFlag=           0 FMFlg1=           0
         NFxFlg=           0 DoJE=F BraDBF=F KetDBF=F FulRan=T
         wScrn=  0.000000 ICntrl=       600 IOpCl=  0 I1Cent=           0 NGrid=           0
         NMat0=    1 NMatS0=  56280 NMatT0=    0 NMatD0=    1 NMtDS0=    0 NMtDT0=    0
 Symmetry not used in FoFCou.
 Two-electron integral symmetry not used.
          MDV=   49660559360 using IRadAn=       5.
          Solving linear equations separately, MaxMat=       0.
          There are     1 degrees of freedom in the 1st order CPHF.  IDoFFX=0 NUNeed=     1.
 LinEq1:  Iter=  0 NonCon=     1 RMS=5.50D-03 Max=4.39D-01 NDo=     1
 AX will form     1 AO Fock derivatives at one time.
 LinEq1:  Iter=  1 NonCon=     1 RMS=1.99D-03 Max=1.33D-01 NDo=     1
 LinEq1:  Iter=  2 NonCon=     1 RMS=1.27D-03 Max=6.65D-02 NDo=     1
 LinEq1:  Iter=  3 NonCon=     1 RMS=4.21D-04 Max=1.29D-02 NDo=     1
 LinEq1:  Iter=  4 NonCon=     1 RMS=2.72D-04 Max=1.33D-02 NDo=     1
 LinEq1:  Iter=  5 NonCon=     1 RMS=1.33D-04 Max=5.95D-03 NDo=     1
 LinEq1:  Iter=  6 NonCon=     1 RMS=6.99D-05 Max=2.44D-03 NDo=     1
 LinEq1:  Iter=  7 NonCon=     1 RMS=3.64D-05 Max=1.12D-03 NDo=     1
 LinEq1:  Iter=  8 NonCon=     1 RMS=1.65D-05 Max=5.07D-04 NDo=     1
 LinEq1:  Iter=  9 NonCon=     1 RMS=6.22D-06 Max=2.11D-04 NDo=     1
 LinEq1:  Iter= 10 NonCon=     1 RMS=3.06D-06 Max=1.61D-04 NDo=     1
 LinEq1:  Iter= 11 NonCon=     1 RMS=1.03D-06 Max=4.37D-05 NDo=     1
 LinEq1:  Iter= 12 NonCon=     1 RMS=4.58D-07 Max=2.46D-05 NDo=     1
 LinEq1:  Iter= 13 NonCon=     1 RMS=2.53D-07 Max=1.89D-05 NDo=     1
 LinEq1:  Iter= 14 NonCon=     1 RMS=1.22D-07 Max=7.45D-06 NDo=     1
 LinEq1:  Iter= 15 NonCon=     1 RMS=3.91D-08 Max=1.32D-06 NDo=     1
 LinEq1:  Iter= 16 NonCon=     1 RMS=1.32D-08 Max=5.31D-07 NDo=     1
 LinEq1:  Iter= 17 NonCon=     1 RMS=6.40D-09 Max=2.64D-07 NDo=     1
 LinEq1:  Iter= 18 NonCon=     1 RMS=1.93D-09 Max=7.73D-08 NDo=     1
 LinEq1:  Iter= 19 NonCon=     1 RMS=1.13D-09 Max=4.18D-08 NDo=     1
 LinEq1:  Iter= 20 NonCon=     1 RMS=4.58D-10 Max=1.48D-08 NDo=     1
 LinEq1:  Iter= 21 NonCon=     1 RMS=1.91D-10 Max=7.71D-09 NDo=     1
 LinEq1:  Iter= 22 NonCon=     1 RMS=7.87D-11 Max=2.91D-09 NDo=     1
 LinEq1:  Iter= 23 NonCon=     0 RMS=2.22D-11 Max=7.35D-10 NDo=     1
 Linear equations converged to 1.000D-10 1.000D-09 after    23 iterations.
 End of Minotr F.D. properties file   721 does not exist.
 End of Minotr F.D. properties file   722 does not exist.
 End of Minotr F.D. properties file   788 does not exist.
 Leave Link 1002 at Mon Jan 31 13:59:19 2022, MaxMem= 49660559360 cpu:            1960.7 elap:             155.0
 (Enter /lustre1/prg/gaussian/bin/G16_C01_Linda_AVX2/g16/l601.exe)
 Copying SCF densities to generalized density rwf, IOpCl= 0 IROHF=0.

 **********************************************************************

            Population analysis using the SCF Density.

 **********************************************************************

 Alpha  occ. eigenvalues --  -25.22143 -25.21515 -14.79778 -14.79771 -10.63840
 Alpha  occ. eigenvalues --  -10.59956 -10.59947 -10.59735 -10.59721 -10.59367
 Alpha  occ. eigenvalues --  -10.58215 -10.58212 -10.58107 -10.57233 -10.57229
 Alpha  occ. eigenvalues --  -10.56727 -10.56713 -10.55252 -10.55242  -7.13469
 Alpha  occ. eigenvalues --   -1.32377  -1.29237  -1.11127  -1.08788  -0.99274
 Alpha  occ. eigenvalues --   -0.93433  -0.89245  -0.87754  -0.86420  -0.85719
 Alpha  occ. eigenvalues --   -0.81938  -0.76808  -0.71051  -0.70307  -0.69688
 Alpha  occ. eigenvalues --   -0.66967  -0.65853  -0.64878  -0.62112  -0.61680
 Alpha  occ. eigenvalues --   -0.60503  -0.58143  -0.57437  -0.54305  -0.54108
 Alpha  occ. eigenvalues --   -0.53198  -0.52331  -0.51790  -0.50583  -0.49886
 Alpha  occ. eigenvalues --   -0.49706  -0.49217  -0.48358  -0.47068  -0.46896
 Alpha  occ. eigenvalues --   -0.46531  -0.45880  -0.45804  -0.44770  -0.44632
 Alpha  occ. eigenvalues --   -0.42974  -0.41806  -0.40973  -0.37716  -0.32904
 Alpha  occ. eigenvalues --   -0.32757  -0.31318  -0.30207  -0.25669
 Alpha virt. eigenvalues --   -0.10641   0.00746   0.01513   0.07251   0.07537
 Alpha virt. eigenvalues --    0.09636   0.10065   0.10628   0.12693   0.12708
[...]
     2  N    0.340537   6.193628   0.489330  -0.025977  -0.053745   0.003656
     3  C   -0.032772   0.489330   4.780371   0.405897   0.461866  -0.041680
     4  H   -0.003191  -0.025977   0.405897   0.592984  -0.039327  -0.003378
     5  C    0.002777  -0.053745   0.461866  -0.039327   4.791424   0.414527
     6  H    0.000179   0.003656  -0.041680  -0.003378   0.414527   0.629548
     7  C    0.004243  -0.078992  -0.053627   0.007061   0.531773  -0.039033
     8  H    0.000231   0.003737   0.009039  -0.000074  -0.040003  -0.005926
     9  C   -0.061530   0.431986  -0.136158   0.002982  -0.052981   0.008869
    10  C   -0.013572  -0.046887   0.008411  -0.000631   0.006894  -0.000237
    11  N    0.340687  -0.037466  -0.000227   0.000201  -0.000176   0.000002
    12  C   -0.032792  -0.000224  -0.000067  -0.000039   0.000018  -0.000000
    13  H   -0.003190   0.000200  -0.000039  -0.000006  -0.000001  -0.000000
    14  C    0.002767  -0.000177   0.000018  -0.000001   0.000003   0.000000
    15  H    0.000179   0.000002  -0.000000  -0.000000   0.000000  -0.000000
    16  C    0.004263   0.000495   0.000031   0.000003  -0.000033  -0.000000
    17  H    0.000232  -0.000010  -0.000001  -0.000000  -0.000001   0.000000
    18  C   -0.061615  -0.005645   0.000480   0.000044  -0.001363   0.000005
    19  F    0.475059  -0.026772  -0.002627  -0.000157  -0.000077   0.000001
    20  F    0.448165  -0.027183   0.008112   0.003993   0.000543   0.000002
    21  C    0.002988   0.003676  -0.000085   0.000016   0.000798  -0.000006
    22  C   -0.000140   0.000044  -0.000038  -0.000002  -0.000204   0.000011
    23  H    0.000004   0.000010  -0.000115   0.000001   0.000926  -0.000000
    24  C   -0.000006  -0.000005   0.000000  -0.000000  -0.000021   0.000000
    25  H    0.000000   0.000000  -0.000000  -0.000000  -0.000001   0.000000
    26  C   -0.000000   0.000000   0.000000   0.000000   0.000000  -0.000000
    27  C   -0.000006   0.000000  -0.000000  -0.000000  -0.000000   0.000000
    28  H    0.000000  -0.000000   0.000000  -0.000000   0.000000  -0.000000
    29  C   -0.000142  -0.000073   0.000006   0.000000   0.000015  -0.000000
    30  H    0.000003  -0.000002   0.000000   0.000000   0.000000  -0.000000
    31  H    0.000000   0.000000  -0.000000   0.000000   0.000000  -0.000000
               7          8          9         10         11         12
     1  B    0.004243   0.000231  -0.061530  -0.013572   0.340687  -0.032792
     2  N   -0.078992   0.003737   0.431986  -0.046887  -0.037466  -0.000224
     3  C   -0.053627   0.009039  -0.136158   0.008411  -0.000227  -0.000067
     4  H    0.007061  -0.000074   0.002982  -0.000631   0.000201  -0.000039
     5  C    0.531773  -0.040003  -0.052981   0.006894  -0.000176   0.000018
     6  H   -0.039033  -0.005926   0.008869  -0.000237   0.000002  -0.000000
     7  C    4.899270   0.419915   0.457652  -0.091549   0.000493   0.000031
     8  H    0.419915   0.630513  -0.043202  -0.006062  -0.000010  -0.000001
     9  C    0.457652  -0.043202   5.071322   0.296722  -0.005651   0.000483
    10  C   -0.091549  -0.006062   0.296722   5.523582  -0.046876   0.008403
    11  N    0.000493  -0.000010  -0.005651  -0.046876   6.193251   0.489261
    12  C    0.000031  -0.000001   0.000483   0.008403   0.489261   4.780452
    13  H    0.000003  -0.000000   0.000044  -0.000631  -0.025984   0.405877
    14  C   -0.000033  -0.000001  -0.001357   0.006891  -0.053763   0.461978
    15  H   -0.000000   0.000000   0.000005  -0.000237   0.003654  -0.041679
    16  C    0.000234   0.000033   0.006141  -0.091498  -0.078958  -0.053614
    17  H    0.000033   0.000002   0.000127  -0.006085   0.003744   0.009043
    18  C    0.006124   0.000122  -0.059755   0.296602   0.431943  -0.136170
    19  F    0.000073   0.000001  -0.001253   0.002601  -0.026771  -0.002625
    20  F   -0.000109   0.000001  -0.002008   0.000345  -0.027154   0.008089
    21  C   -0.014381  -0.001077  -0.040384   0.374600   0.003666  -0.000086
    22  C   -0.004033   0.002671  -0.023688  -0.083930  -0.000073   0.000006
    23  H    0.003720  -0.000654   0.008100  -0.026659  -0.000002   0.000000
    24  C    0.000640   0.000727   0.000331   0.010828   0.000000  -0.000000
    25  H    0.000013   0.000026   0.000041  -0.000428  -0.000000   0.000000
    26  C   -0.000014  -0.000028  -0.000036   0.000604   0.000000   0.000000
    27  C    0.000009  -0.000006  -0.000320   0.010817  -0.000005   0.000000
    28  H   -0.000000  -0.000000   0.000004  -0.000430   0.000000  -0.000000
    29  C   -0.000097  -0.000117   0.013121  -0.083844   0.000044  -0.000039
    30  H   -0.000029  -0.000002   0.000608  -0.026619   0.000003  -0.000116
    31  H    0.000000   0.000000  -0.000000   0.000011   0.000000  -0.000000
              13         14         15         16         17         18
     1  B   -0.003190   0.002767   0.000179   0.004263   0.000232  -0.061615
     2  N    0.000200  -0.000177   0.000002   0.000495  -0.000010  -0.005645
     3  C   -0.000039   0.000018  -0.000000   0.000031  -0.000001   0.000480
     4  H   -0.000006  -0.000001  -0.000000   0.000003  -0.000000   0.000044
     5  C   -0.000001   0.000003   0.000000  -0.000033  -0.000001  -0.001363
     6  H   -0.000000   0.000000  -0.000000  -0.000000   0.000000   0.000005
     7  C    0.000003  -0.000033  -0.000000   0.000234   0.000033   0.006124
     8  H   -0.000000  -0.000001   0.000000   0.000033   0.000002   0.000122
     9  C    0.000044  -0.001357   0.000005   0.006141   0.000127  -0.059755
    10  C   -0.000631   0.006891  -0.000237  -0.091498  -0.006085   0.296602
    11  N   -0.025984  -0.053763   0.003654  -0.078958   0.003744   0.431943
    12  C    0.405877   0.461978  -0.041679  -0.053614   0.009043  -0.136170
    13  H    0.592998  -0.039304  -0.003379   0.007058  -0.000074   0.002989
    14  C   -0.039304   4.791124   0.414529   0.531845  -0.039971  -0.053018
    15  H   -0.003379   0.414529   0.629535  -0.039046  -0.005918   0.008866
    16  C    0.007058   0.531845  -0.039046   4.899083   0.419919   0.457687
    17  H   -0.000074  -0.039971  -0.005918   0.419919   0.630513  -0.043210
    18  C    0.002989  -0.053018   0.008866   0.457687  -0.043210   5.072074
    19  F   -0.000157  -0.000077   0.000001   0.000072   0.000001  -0.001271
    20  F    0.003975   0.000542   0.000002  -0.000109   0.000001  -0.002009
    21  C    0.000016   0.000800  -0.000006  -0.014349  -0.001062  -0.040378
    22  C    0.000000   0.000014  -0.000000  -0.000095  -0.000118   0.013125
    23  H    0.000000   0.000000  -0.000000  -0.000029  -0.000003   0.000609
    24  C   -0.000000  -0.000000   0.000000   0.000009  -0.000006  -0.000319
    25  H   -0.000000   0.000000  -0.000000  -0.000000  -0.000000   0.000004
    26  C    0.000000   0.000000  -0.000000  -0.000014  -0.000028  -0.000037
    27  C   -0.000000  -0.000021   0.000000   0.000636   0.000721   0.000339
    28  H   -0.000000  -0.000001   0.000000   0.000013   0.000025   0.000041
    29  C   -0.000002  -0.000205   0.000011  -0.004063   0.002740  -0.023841
    30  H    0.000001   0.000928  -0.000000   0.003783  -0.000634   0.008002
    31  H    0.000000   0.000000  -0.000000   0.000000   0.000000  -0.000000
              19         20         21         22         23         24
     1  B    0.475059   0.448165   0.002988  -0.000140   0.000004  -0.000006
     2  N   -0.026772  -0.027183   0.003676   0.000044   0.000010  -0.000005
     3  C   -0.002627   0.008112  -0.000085  -0.000038  -0.000115   0.000000
     4  H   -0.000157   0.003993   0.000016  -0.000002   0.000001  -0.000000
     5  C   -0.000077   0.000543   0.000798  -0.000204   0.000926  -0.000021
     6  H    0.000001   0.000002  -0.000006   0.000011  -0.000000   0.000000
     7  C    0.000073  -0.000109  -0.014381  -0.004033   0.003720   0.000640
     8  H    0.000001   0.000001  -0.001077   0.002671  -0.000654   0.000727
     9  C   -0.001253  -0.002008  -0.040384  -0.023688   0.008100   0.000331
    10  C    0.002601   0.000345   0.374600  -0.083930  -0.026659   0.010828
    11  N   -0.026771  -0.027154   0.003666  -0.000073  -0.000002   0.000000
    12  C   -0.002625   0.008089  -0.000086   0.000006   0.000000  -0.000000
    13  H   -0.000157   0.003975   0.000016   0.000000   0.000000  -0.000000
    14  C   -0.000077   0.000542   0.000800   0.000014   0.000000  -0.000000
    15  H    0.000001   0.000002  -0.000006  -0.000000  -0.000000   0.000000
    16  C    0.000072  -0.000109  -0.014349  -0.000095  -0.000029   0.000009
    17  H    0.000001   0.000001  -0.001062  -0.000118  -0.000003  -0.000006
    18  C   -0.001271  -0.002009  -0.040378   0.013125   0.000609  -0.000319
    19  F    8.829845  -0.016538   0.000166  -0.000003   0.000002  -0.000000
    20  F   -0.016538   8.834089  -0.000001  -0.000000  -0.000000   0.000000
    21  C    0.000166  -0.000001   4.856527   0.476847  -0.040157   0.004469
    22  C   -0.000003  -0.000000   0.476847   4.914748   0.395582   0.518860
    23  H    0.000002  -0.000000  -0.040157   0.395582   0.680272  -0.038656
    24  C   -0.000000   0.000000   0.004469   0.518860  -0.038656   4.705514
    25  H   -0.000000  -0.000000   0.008884  -0.031131  -0.013804   0.395204
    26  C    0.000000  -0.000000  -0.066037  -0.020699   0.009402   0.503689
    27  C   -0.000000   0.000000   0.004425  -0.068713  -0.001019  -0.005116
    28  H   -0.000000  -0.000000   0.008867   0.000226   0.000056   0.008215
    29  C   -0.000003  -0.000000   0.476913  -0.061621   0.009940  -0.068741
    30  H    0.000002  -0.000000  -0.040038   0.009942  -0.000075  -0.001015
    31  H    0.000000  -0.000000  -0.000448   0.009640  -0.000195  -0.043446
              25         26         27         28         29         30
     1  B    0.000000  -0.000000  -0.000006   0.000000  -0.000142   0.000003
     2  N    0.000000   0.000000   0.000000  -0.000000  -0.000073  -0.000002
     3  C   -0.000000   0.000000  -0.000000   0.000000   0.000006   0.000000
     4  H   -0.000000   0.000000  -0.000000  -0.000000   0.000000   0.000000
     5  C   -0.000001   0.000000  -0.000000   0.000000   0.000015   0.000000
     6  H    0.000000  -0.000000   0.000000  -0.000000  -0.000000  -0.000000
     7  C    0.000013  -0.000014   0.000009  -0.000000  -0.000097  -0.000029
     8  H    0.000026  -0.000028  -0.000006  -0.000000  -0.000117  -0.000002
     9  C    0.000041  -0.000036  -0.000320   0.000004   0.013121   0.000608
    10  C   -0.000428   0.000604   0.010817  -0.000430  -0.083844  -0.026619
    11  N   -0.000000   0.000000  -0.000005   0.000000   0.000044   0.000003
    12  C    0.000000   0.000000   0.000000  -0.000000  -0.000039  -0.000116
    13  H   -0.000000   0.000000  -0.000000  -0.000000  -0.000002   0.000001
    14  C    0.000000   0.000000  -0.000021  -0.000001  -0.000205   0.000928
    15  H   -0.000000  -0.000000   0.000000   0.000000   0.000011  -0.000000
    16  C   -0.000000  -0.000014   0.000636   0.000013  -0.004063   0.003783
    17  H   -0.000000  -0.000028   0.000721   0.000025   0.002740  -0.000634
    18  C    0.000004  -0.000037   0.000339   0.000041  -0.023841   0.008002
    19  F   -0.000000   0.000000  -0.000000  -0.000000  -0.000003   0.000002
    20  F   -0.000000  -0.000000   0.000000  -0.000000  -0.000000  -0.000000
    21  C    0.008884  -0.066037   0.004425   0.008867   0.476913  -0.040038
    22  C   -0.031131  -0.020699  -0.068713   0.000226  -0.061621   0.009942
    23  H   -0.013804   0.009402  -0.001019   0.000056   0.009940  -0.000075
    24  C    0.395204   0.503689  -0.005116   0.008215  -0.068741  -0.001015
    25  H    0.669430  -0.046766   0.008219  -0.000224   0.000223   0.000055
    26  C   -0.046766   4.772836   0.503638  -0.046749  -0.020664   0.009386
    27  C    0.008219   0.503638   4.705635   0.395211   0.518807  -0.038645
    28  H   -0.000224  -0.046749   0.395211   0.669390  -0.031172  -0.013773
    29  C    0.000223  -0.020664   0.518807  -0.031172   4.914613   0.395648
    30  H    0.000055   0.009386  -0.038645  -0.013773   0.395648   0.679746
    31  H   -0.012055   0.402665  -0.043456  -0.012054   0.009639  -0.000195
              31
     1  B    0.000000
     2  N    0.000000
     3  C   -0.000000
     4  H    0.000000
     5  C    0.000000
     6  H   -0.000000
     7  C    0.000000
     8  H    0.000000
     9  C   -0.000000
    10  C    0.000011
    11  N    0.000000
    12  C   -0.000000
    13  H    0.000000
    14  C    0.000000
    15  H   -0.000000
    16  C    0.000000
    17  H    0.000000
    18  C   -0.000000
    19  F    0.000000
    20  F   -0.000000
    21  C   -0.000448
    22  C    0.009640
    23  H   -0.000195
    24  C   -0.043446
    25  H   -0.012055
    26  C    0.402665
    27  C   -0.043456
    28  H   -0.012054
    29  C    0.009639
    30  H   -0.000195
    31  H    0.668033
 Mulliken charges:
               1
     1  B    0.194645
     2  N   -0.164143
     3  C    0.103877
     4  H    0.059601
     5  C   -0.023630
     6  H    0.033461
     7  C   -0.049389
     8  H    0.030144
     9  C    0.129787
    10  C   -0.021134
    11  N   -0.163831
    12  C    0.103811
    13  H    0.059604
    14  C   -0.023510
    15  H    0.033481
    16  C   -0.049496
    17  H    0.030021
    18  C    0.129575
    19  F   -0.229493
    20  F   -0.232749
    21  C    0.034838
    22  C   -0.047227
    23  H    0.012742
    24  C    0.008845
    25  H    0.022312
    26  C   -0.001148
    27  C    0.008850
    28  H    0.022355
    29  C   -0.047097
    30  H    0.013036
    31  H    0.021861
 Sum of Mulliken charges =  -0.00000
 Mulliken charges with hydrogens summed into heavy atoms:
               1
     1  B    0.194645
     2  N   -0.164143
     3  C    0.163478
     5  C    0.009831
     7  C   -0.019245
     9  C    0.129787
    10  C   -0.021134
    11  N   -0.163831
    12  C    0.163415
    14  C    0.009971
    16  C   -0.019475
    18  C    0.129575
    19  F   -0.229493
    20  F   -0.232749
    21  C    0.034838
    22  C   -0.034485
    24  C    0.031157
    26  C    0.020713
    27  C    0.031204
    29  C   -0.034062
 Electronic spatial extent (au):  <R**2>=           8571.4600
 Charge=             -0.0000 electrons
 Dipole moment (field-independent basis, Debye):
    X=             -2.9847    Y=             -4.0467    Z=              1.5723  Tot=              5.2684
 Quadrupole moment (field-independent basis, Debye-Ang):
   XX=            -87.7639   YY=           -123.4795   ZZ=            -88.8304
   XY=             -0.1930   XZ=             -0.2788   YZ=             -6.0540
 Traceless Quadrupole moment (field-independent basis, Debye-Ang):
   XX=             12.2607   YY=            -23.4549   ZZ=             11.1942
   XY=             -0.1930   XZ=             -0.2788   YZ=             -6.0540
 Octapole moment (field-independent basis, Debye-Ang**2):
  XXX=            601.9414  YYY=            -54.8827  ZZZ=           -487.1481  XYY=            268.2742
  XXY=             -8.7301  XXZ=           -137.2986  XZZ=            186.9292  YZZ=            -33.0134
  YYZ=           -203.8862  XYZ=             -9.3935
 Hexadecapole moment (field-independent basis, Debye-Ang**3):
 XXXX=          -5568.3828 YYYY=           -562.1901 ZZZZ=          -4123.1678 XXXY=             49.1491
 XXXZ=           1362.3195 YYYX=            168.1995 YYYZ=             -4.6731 ZZZX=           1411.5619
 ZZZY=            -52.3902 XXYY=          -1265.6875 XXZZ=          -1512.3254 YYZZ=           -912.4858
 XXYZ=             77.7731 YYXZ=            644.6193 ZZXY=             20.4429
 N-N= 1.471770299753D+03 E-N=-5.073316533363D+03  KE= 9.065708013594D+02
 No NMR shielding tensors so no spin-rotation constants.
 Leave Link  601 at Mon Jan 31 15:30:31 2022, MaxMem= 49660559360 cpu:               9.9 elap:               0.4
 (Enter /lustre1/prg/gaussian/bin/G16_C01_Linda_AVX2/g16/l9999.exe)
 Electronic transition elements 
                 1             2             3             4             5 
      1  -0.912093D+03 -0.912050D+03 -0.912042D+03 -0.912026D+03 -0.912023D+03
      2  -0.158615D+01 -0.243728D+01  0.399221D+00  0.415520D+00  0.398361D+00
      3   0.357399D+00  0.471109D+00 -0.896862D-01  0.264075D+00 -0.953454D-01
      4  -0.208307D+01  0.193075D+01  0.537571D+00 -0.264615D+00  0.527456D+00
      5   0.117263D+00  0.284091D+00 -0.514805D-01 -0.602524D-01 -0.613522D-01
      6  -0.264184D-01 -0.579943D-01  0.115612D-01 -0.366764D-01  0.146340D-01
      7   0.153964D+00 -0.225576D+00 -0.692159D-01  0.385866D-01 -0.812521D-01
      8  -0.441752D-01  0.188032D+00 -0.285956D+00 -0.120998D+00 -0.173765D+00
      9   0.144034D+01 -0.352292D-01  0.580389D+00  0.107954D-01 -0.150317D+01
     10   0.280036D+00  0.242328D+00  0.318681D+00 -0.158964D+00 -0.130751D+00
     11  -0.434022D+00 -0.294247D+01  0.468623D+00  0.308655D+00  0.951946D+00
     12   0.437683D-01  0.572594D-01 -0.401323D-01  0.353823D-01  0.162498D-01
     13   0.398690D+00 -0.147898D+01 -0.443561D+00  0.129887D+00 -0.973133D+00
     14  -0.483244D-01  0.299379D+00  0.368990D-01  0.169519D+00 -0.148135D+00
     15  -0.131717D+00  0.289624D+01  0.152782D+00 -0.192908D+00  0.255477D+00
     16  -0.161820D+00 -0.354881D+00  0.154434D+00 -0.126207D+00  0.397426D-01
                 6 
      1  -0.911970D+03
      2  -0.506127D+00
      3   0.777703D-01
      4   0.393603D+00
      5   0.100836D+00
      6  -0.175065D-01
      7  -0.787896D-01
      8   0.652341D-01
      9  -0.705403D-02
     10   0.865746D-01
     11  -0.193966D+01
     12  -0.384587D-03
     13  -0.126004D+01
     14   0.254064D+00
     15   0.138254D+01
     16  -0.163897D+00
 Unable to Open any file for archive entry.
 1\1\VILNIUS-FIZIKA347\FOpt\RM062X TD-FC\CC-pVDZ\C15H11B1F2N2\TOLISTE\3
 1-Jan-2022\0\\#p m062x cc-pvdz scrf=(cpcm,solvent=DiMethylSulfoxide) t
 d=(nstate=6,root=1) opt=tight nosymm density=all int=ultrafine fchk\\B
 DP-phenyl, optimized R1 in toluene\\0,1\B,-0.207476274,0.9758041241,0.
 3422748632\N,-0.0541244469,0.0954153712,1.609267821\C,1.0599392779,-0.
 4018298718,2.1523405363\H,2.0351597397,-0.174728773,1.7278301529\C,0.7
 247092895,-1.2031622274,3.2739722485\H,1.4329590323,-1.7261474887,3.91
 00639283\C,-0.659467432,-1.1889730105,3.3854620384\H,-1.2667494337,-1.
 7367248526,4.0990274233\C,-1.1561556442,-0.3493591211,2.3477466421\C,-
 2.4926218197,-0.0234626768,1.909260548\N,-1.5059214019,0.4234123989,-0
 .2995466205\C,-1.7886287807,0.2415598369,-1.592023536\H,-1.0775646554,
 0.5294131375,-2.3630045239\C,-3.0730444371,-0.347197565,-1.7188990821\
 H,-3.5612792909,-0.6006231198,-2.6554866257\C,-3.5633714341,-0.5356947
 756,-0.4333367009\H,-4.4968852748,-1.011049708,-0.1491092925\C,-2.5848
 8588,-0.027590125,0.4683426486\F,-0.3670133564,2.3163779846,0.69403254
 04\F,0.8729597766,0.7972089813,-0.5098653652\C,-3.625399175,0.13089089
 05,2.7956857827\C,-3.4716599228,0.0763713684,4.2015936214\H,-2.4834882
 264,-0.0646496697,4.6352709593\C,-4.560153827,0.2378612256,5.049123330
 8\H,-4.4086213321,0.1906255283,6.127953214\C,-5.8361238226,0.471868564
 7,4.5308614047\C,-6.001355767,0.5721731348,3.1474125475\H,-6.984646138
 1,0.7885100273,2.7285250956\C,-4.9182728537,0.4118697053,2.2927927409\
 H,-5.0695259373,0.5360132869,1.2221316705\H,-6.6886995522,0.5958204186
 ,5.1987209886\\Version=ES64L-G16RevC.01\HF=-912.1653427\RMSD=5.425e-09
 \RMSF=1.632e-06\Dipole=-1.1742615,-1.5920879,0.6185947\Quadrupole=9.11
 5543,-17.438128,8.322585,-0.143527,-0.2072623,-4.5009824\PG=C01 [X(C15
 H11B1F2N2)]\\@
 The archive entry for this job was punched.


 ... IT IS NO ONE DREAME THAT
     CAN PLEASE THESE ALL ...

                -- BEN JONSON
 Job cpu time:       0 days  0 hours  6 minutes  7.7 seconds.
 Elapsed time:       0 days  1 hours 36 minutes 35.3 seconds.
 File lengths (MBytes):  RWF=    779 Int=      0 D2E=      0 Chk=     37 Scr=      1
 Normal termination of Gaussian 16 at Mon Jan 31 15:30:32 2022.
