 Entering Gaussian System, Link 0=/lustre1/prg/gaussian/bin/G16_C01_Linda_AVX2/g16/g16
 Initial command:
 /lustre1/prg/gaussian/bin/G16_C01_Linda_AVX2/g16/l1.exe "/lustre1/prg/webmo/data/webmo20/toliste/4365/scratch/Gau-2065974.inp" -scrdir="/lustre1/prg/webmo/data/webmo20/toliste/4365/scratch/"
 Default is to use a total of  32 processors:
                               32 via shared-memory
                                1 via Linda
 Entering Link 1 = /lustre1/prg/gaussian/bin/G16_C01_Linda_AVX2/g16/l1.exe PID=   2065975.
  
 Copyright (c) 1988-2019, Gaussian, Inc.  All Rights Reserved.
  
 This is part of the Gaussian(R) 16 program.  It is based on
 the Gaussian(R) 09 system (copyright 2009, Gaussian, Inc.),
 the Gaussian(R) 03 system (copyright 2003, Gaussian, Inc.),
 the Gaussian(R) 98 system (copyright 1998, Gaussian, Inc.),
 the Gaussian(R) 94 system (copyright 1995, Gaussian, Inc.),
 the Gaussian 92(TM) system (copyright 1992, Gaussian, Inc.),
 the Gaussian 90(TM) system (copyright 1990, Gaussian, Inc.),
 the Gaussian 88(TM) system (copyright 1988, Gaussian, Inc.),
 the Gaussian 86(TM) system (copyright 1986, Carnegie Mellon
 University), and the Gaussian 82(TM) system (copyright 1983,
 Carnegie Mellon University). Gaussian is a federally registered
 trademark of Gaussian, Inc.
  
 This software contains proprietary and confidential information,
 including trade secrets, belonging to Gaussian, Inc.
  
 This software is provided under written license and may be
 used, copied, transmitted, or stored only in accord with that
 written license.
  
 The following legend is applicable only to US Government
 contracts under FAR:
  
                    RESTRICTED RIGHTS LEGEND
  
 Use, reproduction and disclosure by the US Government is
 subject to restrictions as set forth in subparagraphs (a)
 and (c) of the Commercial Computer Software - Restricted
 Rights clause in FAR 52.227-19.
  
 Gaussian, Inc.
 340 Quinnipiac St., Bldg. 40, Wallingford CT 06492
  
  
 ---------------------------------------------------------------
 Warning -- This program may not be used in any manner that
 competes with the business of Gaussian, Inc. or will provide
 assistance to any competitor of Gaussian, Inc.  The licensee
 of this program is prohibited from giving any competitor of
 Gaussian, Inc. access to this program.  By using this program,
 the user acknowledges that Gaussian, Inc. is engaged in the
 business of creating and licensing software in the field of
 computational chemistry and represents and warrants to the
 licensee that it is not a competitor of Gaussian, Inc. and that
 it will not use this program in any manner prohibited above.
 ---------------------------------------------------------------
  

 Cite this work as:
 Gaussian 16, Revision C.01,
 M. J. Frisch, G. W. Trucks, H. B. Schlegel, G. E. Scuseria, 
 M. A. Robb, J. R. Cheeseman, G. Scalmani, V. Barone, 
 G. A. Petersson, H. Nakatsuji, X. Li, M. Caricato, A. V. Marenich, 
 J. Bloino, B. G. Janesko, R. Gomperts, B. Mennucci, H. P. Hratchian, 
 J. V. Ortiz, A. F. Izmaylov, J. L. Sonnenberg, D. Williams-Young, 
 F. Ding, F. Lipparini, F. Egidi, J. Goings, B. Peng, A. Petrone, 
 T. Henderson, D. Ranasinghe, V. G. Zakrzewski, J. Gao, N. Rega, 
 G. Zheng, W. Liang, M. Hada, M. Ehara, K. Toyota, R. Fukuda, 
 J. Hasegawa, M. Ishida, T. Nakajima, Y. Honda, O. Kitao, H. Nakai, 
 T. Vreven, K. Throssell, J. A. Montgomery, Jr., J. E. Peralta, 
 F. Ogliaro, M. J. Bearpark, J. J. Heyd, E. N. Brothers, K. N. Kudin, 
 V. N. Staroverov, T. A. Keith, R. Kobayashi, J. Normand, 
 K. Raghavachari, A. P. Rendell, J. C. Burant, S. S. Iyengar, 
 J. Tomasi, M. Cossi, J. M. Millam, M. Klene, C. Adamo, R. Cammi, 
 J. W. Ochterski, R. L. Martin, K. Morokuma, O. Farkas, 
 J. B. Foresman, and D. J. Fox, Gaussian, Inc., Wallingford CT, 2019.
 
 ******************************************
 Gaussian 16:  ES64L-G16RevC.01  3-Jul-2019
                31-Jan-2022 
 ******************************************
 %LindaWorkers=fizika345,fizika346
 %chk=bodipy.chk
 SetLPE:  input flags=" -opt "Tsnet.Node.lindarsharg: ssh" "
 SetLPE:    new flags=" -opt "Tsnet.Node.lindarsharg: ssh" -opt 'Tsnet.Node.lindarsharg: ssh'  -nodelist 'fizika345.fizika.bullx fizika346.fizika.bullx' -env GAUSS_MDEF=49660559360 -env GAUSS_EXEDIR="/lustre1/prg/gaussian/bin/G16_C01_Linda_AVX2/g16/bsd:/lustre1/prg/gaussian/bin/G16_C01_Linda_AVX2/g16/private:/lustre1/prg/gaussian/bin/G16_C01_Linda_AVX2/g16""
 Will use up to    2 processors via Linda.
 ----------------------------------------------------------------------
 #p m062x cc-pvdz scrf=(cpcm,solvent=Methanol) td=(nstate=6,root=1) opt
 =tight nosymm density=all int=ultrafine fchk
 ----------------------------------------------------------------------
 1/7=10,18=20,19=15,26=6,38=1/1,3;
 2/9=110,12=2,15=1,17=6,18=5,40=1/2;
 3/5=16,11=9,25=1,30=1,70=2101,71=1,72=3,74=-55,75=-5/1,2,3,8;
 4//1;
 5/5=2,38=5,53=3/2;
 8/6=1,10=1,107=1,108=6/1;
 9/8=1,15=2,30=10,41=6,42=1,70=2/14;
 10/5=4,28=1,31=1/2;
 6/7=2,8=2,9=2,10=2,22=-2/1;
 7/12=6,13=5,14=1,30=1/1,2,3,16;
 1/7=10,18=20,19=15,26=6/3(2);
 2/9=110,15=1/2;
 99//99;
 2/9=110,15=1/2;
 3/5=16,11=9,25=1,30=1,70=2105,71=1,72=3,74=-55,75=-5/1,2,3,8;
 4/5=5,16=3,69=1/1;
 5/5=2,38=5,53=3/2;
 8/6=1,10=1,107=1,108=6/1;
 9/8=1,15=2,30=10,41=6,42=1,49=4,70=2/14;
 10/5=4,28=1,31=1/2;
 7/12=6,13=5,14=1,30=1/1,2,3,16;
 1/7=10,18=20,19=15,26=6/3(-8);
 2/9=110,15=1/2;
 6/7=2,8=2,9=2,10=2,22=-2/1;
 99/9=10/99;
 Leave Link    1 at Mon Jan 31 13:50:11 2022, MaxMem=           0 cpu:               2.4 elap:               0.1
 (Enter /lustre1/prg/gaussian/bin/G16_C01_Linda_AVX2/g16/l101.exe)
 -----------------------------------
 BDP-phenyl, optimized S1 in toluene
 -----------------------------------
 Symbolic Z-matrix:
 Charge =  0 Multiplicity = 1
 B                    -0.02231  -0.31808   0.01333 
 N                    -0.00171  -0.08569   1.54179 
 C                     1.0918    0.04446   2.29711 
 H                     2.08119   0.03819   1.84491 
 C                     0.7197    0.18272   3.66194 
 H                     1.40889   0.30959   4.49193 
 C                    -0.66741   0.14007   3.71363 
 H                    -1.30494   0.25247   4.58505 
 C                    -1.12869  -0.02985   2.37723 
 C                    -2.45225  -0.04016   1.84905 
 N                    -1.46798   0.04399  -0.40749 
 C                    -1.88279   0.18662  -1.66883 
 H                    -1.16857   0.19057  -2.48945 
 C                    -3.29967   0.28411  -1.70166 
 H                    -3.90248   0.3967   -2.59829 
 C                    -3.74698   0.19189  -0.39007 
 H                    -4.77383   0.20989  -0.04061 
 C                    -2.59401   0.05427   0.43543 
 F                     0.89563   0.51262  -0.61981 
 F                     0.24685  -1.65443  -0.28466 
 C                    -3.61113  -0.05792   2.75119 
 C                    -3.65983  -0.9701    3.82109 
 H                    -2.84201  -1.68028   3.95478 
 C                    -4.75117  -0.99431   4.68413 
 H                    -4.77664  -1.71742   5.50007 
 C                    -5.81224  -0.10577   4.50205 
 C                    -5.77179   0.80971   3.44993 
 H                    -6.58902   1.51803   3.30947 
 C                    -4.68401   0.83511   2.58143 
 H                    -4.64371   1.57825   1.78411 
 H                    -6.66629  -0.12526   5.17963 
 
 ITRead=  0  0  0  0  0  0  0  0  0  0  0  0  0  0  0  0  0  0  0  0
 ITRead=  0  0  0  0  0  0  0  0  0  0  0
 MicOpt= -1 -1 -1 -1 -1 -1 -1 -1 -1 -1 -1 -1 -1 -1 -1 -1 -1 -1 -1 -1
 MicOpt= -1 -1 -1 -1 -1 -1 -1 -1 -1 -1 -1
 NAtoms=     31 NQM=       31 NQMF=       0 NMMI=      0 NMMIF=      0
                NMic=       0 NMicF=      0.
                    Isotopes and Nuclear Properties:
 (Nuclear quadrupole moments (NQMom) in fm**2, nuclear magnetic moments (NMagM)
  in nuclear magnetons)

  Atom         1           2           3           4           5           6           7           8           9          10
 IAtWgt=          11          14          12           1          12           1          12           1          12          12
 AtmWgt=  11.0093053  14.0030740  12.0000000   1.0078250  12.0000000   1.0078250  12.0000000   1.0078250  12.0000000  12.0000000
 NucSpn=           3           2           0           1           0           1           0           1           0           0
 AtZEff=  -0.0000000  -0.0000000  -0.0000000  -0.0000000  -0.0000000  -0.0000000  -0.0000000  -0.0000000  -0.0000000  -0.0000000
 NQMom=    4.0590000   2.0440000   0.0000000   0.0000000   0.0000000   0.0000000   0.0000000   0.0000000   0.0000000   0.0000000
 NMagM=    2.6886370   0.4037610   0.0000000   2.7928460   0.0000000   2.7928460   0.0000000   2.7928460   0.0000000   0.0000000
 AtZNuc=   5.0000000   7.0000000   6.0000000   1.0000000   6.0000000   1.0000000   6.0000000   1.0000000   6.0000000   6.0000000

  Atom        11          12          13          14          15          16          17          18          19          20
 IAtWgt=          14          12           1          12           1          12           1          12          19          19
 AtmWgt=  14.0030740  12.0000000   1.0078250  12.0000000   1.0078250  12.0000000   1.0078250  12.0000000  18.9984032  18.9984032
 NucSpn=           2           0           1           0           1           0           1           0           1           1
 AtZEff=  -0.0000000  -0.0000000  -0.0000000  -0.0000000  -0.0000000  -0.0000000  -0.0000000  -0.0000000  -0.0000000  -0.0000000
 NQMom=    2.0440000   0.0000000   0.0000000   0.0000000   0.0000000   0.0000000   0.0000000   0.0000000   0.0000000   0.0000000
 NMagM=    0.4037610   0.0000000   2.7928460   0.0000000   2.7928460   0.0000000   2.7928460   0.0000000   2.6288670   2.6288670
 AtZNuc=   7.0000000   6.0000000   1.0000000   6.0000000   1.0000000   6.0000000   1.0000000   6.0000000   9.0000000   9.0000000

  Atom        21          22          23          24          25          26          27          28          29          30
 IAtWgt=          12          12           1          12           1          12          12           1          12           1
 AtmWgt=  12.0000000  12.0000000   1.0078250  12.0000000   1.0078250  12.0000000  12.0000000   1.0078250  12.0000000   1.0078250
 NucSpn=           0           0           1           0           1           0           0           1           0           1
 AtZEff=  -0.0000000  -0.0000000  -0.0000000  -0.0000000  -0.0000000  -0.0000000  -0.0000000  -0.0000000  -0.0000000  -0.0000000
 NQMom=    0.0000000   0.0000000   0.0000000   0.0000000   0.0000000   0.0000000   0.0000000   0.0000000   0.0000000   0.0000000
 NMagM=    0.0000000   0.0000000   2.7928460   0.0000000   2.7928460   0.0000000   0.0000000   2.7928460   0.0000000   2.7928460
 AtZNuc=   6.0000000   6.0000000   1.0000000   6.0000000   1.0000000   6.0000000   6.0000000   1.0000000   6.0000000   1.0000000

  Atom        31
 IAtWgt=           1
 AtmWgt=   1.0078250
 NucSpn=           1
 AtZEff=  -0.0000000
 NQMom=    0.0000000
 NMagM=    2.7928460
 AtZNuc=   1.0000000
 Leave Link  101 at Mon Jan 31 13:50:12 2022, MaxMem= 49660559360 cpu:              25.8 elap:               0.8
 (Enter /lustre1/prg/gaussian/bin/G16_C01_Linda_AVX2/g16/l103.exe)

 GradGradGradGradGradGradGradGradGradGradGradGradGradGradGradGradGradGrad
 Berny optimization.
 Initialization pass.
                           ----------------------------
                           !    Initial Parameters    !
                           ! (Angstroms and Degrees)  !
 --------------------------                            --------------------------
 ! Name  Definition              Value          Derivative Info.                !
 --------------------------------------------------------------------------------
 ! R1    R(1,2)                  1.5462         estimate D2E/DX2                !
 ! R2    R(1,11)                 1.5486         estimate D2E/DX2                !
 ! R3    R(1,19)                 1.3905         estimate D2E/DX2                !
 ! R4    R(1,20)                 1.3954         estimate D2E/DX2                !
 ! R5    R(2,3)                  1.3354         estimate D2E/DX2                !
 ! R6    R(2,9)                  1.404          estimate D2E/DX2                !
 ! R7    R(3,4)                  1.0878         estimate D2E/DX2                !
 ! R8    R(3,5)                  1.4214         estimate D2E/DX2                !
 ! R9    R(5,6)                  1.0863         estimate D2E/DX2                !
 ! R10   R(5,7)                  1.3887         estimate D2E/DX2                !
 ! R11   R(7,8)                  1.0856         estimate D2E/DX2                !
 ! R12   R(7,9)                  1.4239         estimate D2E/DX2                !
 ! R13   R(9,10)                 1.4251         estimate D2E/DX2                !
 ! R14   R(10,18)                1.4238         estimate D2E/DX2                !
 ! R15   R(10,21)                1.4687         estimate D2E/DX2                !
 ! R16   R(11,12)                1.3354         estimate D2E/DX2                !
 ! R17   R(11,18)                1.4066         estimate D2E/DX2                !
 ! R18   R(12,13)                1.0879         estimate D2E/DX2                !
 ! R19   R(12,14)                1.4206         estimate D2E/DX2                !
 ! R20   R(14,15)                1.0863         estimate D2E/DX2                !
 ! R21   R(14,16)                1.3888         estimate D2E/DX2                !
 ! R22   R(16,17)                1.0848         estimate D2E/DX2                !
 ! R23   R(16,18)                1.4247         estimate D2E/DX2                !
 ! R24   R(21,22)                1.4068         estimate D2E/DX2                !
 ! R25   R(21,29)                1.4062         estimate D2E/DX2                !
 ! R26   R(22,23)                1.0914         estimate D2E/DX2                !
 ! R27   R(22,24)                1.3916         estimate D2E/DX2                !
 ! R28   R(24,25)                1.0905         estimate D2E/DX2                !
 ! R29   R(24,26)                1.3959         estimate D2E/DX2                !
 ! R30   R(26,27)                1.3952         estimate D2E/DX2                !
 ! R31   R(26,31)                1.0904         estimate D2E/DX2                !
 ! R32   R(27,28)                1.0906         estimate D2E/DX2                !
 ! R33   R(27,29)                1.3922         estimate D2E/DX2                !
 ! R34   R(29,30)                1.0907         estimate D2E/DX2                !
 ! A1    A(2,1,11)             104.2368         estimate D2E/DX2                !
 ! A2    A(2,1,19)             110.5806         estimate D2E/DX2                !
 ! A3    A(2,1,20)             110.6387         estimate D2E/DX2                !
 ! A4    A(11,1,19)            110.6626         estimate D2E/DX2                !
 ! A5    A(11,1,20)            110.2405         estimate D2E/DX2                !
 ! A6    A(19,1,20)            110.3381         estimate D2E/DX2                !
 ! A7    A(1,2,3)              125.7825         estimate D2E/DX2                !
 ! A8    A(1,2,9)              125.6983         estimate D2E/DX2                !
 ! A9    A(3,2,9)              108.4737         estimate D2E/DX2                !
 ! A10   A(2,3,4)              120.603          estimate D2E/DX2                !
 ! A11   A(2,3,5)              109.7685         estimate D2E/DX2                !
 ! A12   A(4,3,5)              129.6279         estimate D2E/DX2                !
 ! A13   A(3,5,6)              125.3761         estimate D2E/DX2                !
 ! A14   A(3,5,7)              107.1121         estimate D2E/DX2                !
 ! A15   A(6,5,7)              127.5076         estimate D2E/DX2                !
 ! A16   A(5,7,8)              127.8286         estimate D2E/DX2                !
 ! A17   A(5,7,9)              106.9958         estimate D2E/DX2                !
 ! A18   A(8,7,9)              125.1335         estimate D2E/DX2                !
 ! A19   A(2,9,7)              107.6485         estimate D2E/DX2                !
 ! A20   A(2,9,10)             121.6466         estimate D2E/DX2                !
 ! A21   A(7,9,10)             130.5098         estimate D2E/DX2                !
 ! A22   A(9,10,18)            117.3846         estimate D2E/DX2                !
 ! A23   A(9,10,21)            120.3479         estimate D2E/DX2                !
 ! A24   A(18,10,21)           122.145          estimate D2E/DX2                !
 ! A25   A(1,11,12)            124.8623         estimate D2E/DX2                !
 ! A26   A(1,11,18)            125.8873         estimate D2E/DX2                !
 ! A27   A(12,11,18)           108.4552         estimate D2E/DX2                !
 ! A28   A(11,12,13)           120.5923         estimate D2E/DX2                !
 ! A29   A(11,12,14)           109.8136         estimate D2E/DX2                !
 ! A30   A(13,12,14)           129.5759         estimate D2E/DX2                !
 ! A31   A(12,14,15)           125.4268         estimate D2E/DX2                !
 ! A32   A(12,14,16)           107.1483         estimate D2E/DX2                !
 ! A33   A(15,14,16)           127.4206         estimate D2E/DX2                !
 ! A34   A(14,16,17)           127.4429         estimate D2E/DX2                !
 ! A35   A(14,16,18)           107.0354         estimate D2E/DX2                !
 ! A36   A(17,16,18)           125.5195         estimate D2E/DX2                !
 ! A37   A(10,18,11)           120.9814         estimate D2E/DX2                !
 ! A38   A(10,18,16)           131.4712         estimate D2E/DX2                !
 ! A39   A(11,18,16)           107.5381         estimate D2E/DX2                !
 ! A40   A(10,21,22)           120.1513         estimate D2E/DX2                !
 ! A41   A(10,21,29)           121.3444         estimate D2E/DX2                !
 ! A42   A(22,21,29)           118.5007         estimate D2E/DX2                !
 ! A43   A(21,22,23)           119.2851         estimate D2E/DX2                !
 ! A44   A(21,22,24)           120.6703         estimate D2E/DX2                !
 ! A45   A(23,22,24)           120.0261         estimate D2E/DX2                !
 ! A46   A(22,24,25)           119.5953         estimate D2E/DX2                !
 ! A47   A(22,24,26)           120.2761         estimate D2E/DX2                !
 ! A48   A(25,24,26)           120.1269         estimate D2E/DX2                !
 ! A49   A(24,26,27)           119.6026         estimate D2E/DX2                !
 ! A50   A(24,26,31)           120.1958         estimate D2E/DX2                !
 ! A51   A(27,26,31)           120.2014         estimate D2E/DX2                !
 ! A52   A(26,27,28)           120.1034         estimate D2E/DX2                !
 ! A53   A(26,27,29)           120.3347         estimate D2E/DX2                !
 ! A54   A(28,27,29)           119.5586         estimate D2E/DX2                !
 ! A55   A(21,29,27)           120.6133         estimate D2E/DX2                !
 ! A56   A(21,29,30)           119.5221         estimate D2E/DX2                !
 ! A57   A(27,29,30)           119.8244         estimate D2E/DX2                !
 ! D1    D(11,1,2,3)          -162.9026         estimate D2E/DX2                !
 ! D2    D(11,1,2,9)            19.8349         estimate D2E/DX2                !
 ! D3    D(19,1,2,3)           -43.9469         estimate D2E/DX2                !
 ! D4    D(19,1,2,9)           138.7906         estimate D2E/DX2                !
 ! D5    D(20,1,2,3)            78.6102         estimate D2E/DX2                !
 ! D6    D(20,1,2,9)           -98.6524         estimate D2E/DX2                !
 ! D7    D(2,1,11,12)          169.1902         estimate D2E/DX2                !
 ! D8    D(2,1,11,18)          -22.2185         estimate D2E/DX2                !
 ! D9    D(19,1,11,12)          50.2904         estimate D2E/DX2                !
 ! D10   D(19,1,11,18)        -141.1183         estimate D2E/DX2                !
 ! D11   D(20,1,11,12)         -72.0506         estimate D2E/DX2                !
 ! D12   D(20,1,11,18)          96.5407         estimate D2E/DX2                !
 ! D13   D(1,2,3,4)              2.9299         estimate D2E/DX2                !
 ! D14   D(1,2,3,5)           -177.3007         estimate D2E/DX2                !
 ! D15   D(9,2,3,4)           -179.4137         estimate D2E/DX2                !
 ! D16   D(9,2,3,5)              0.3557         estimate D2E/DX2                !
 ! D17   D(1,2,9,7)            177.4582         estimate D2E/DX2                !
 ! D18   D(1,2,9,10)            -7.1168         estimate D2E/DX2                !
 ! D19   D(3,2,9,7)             -0.2006         estimate D2E/DX2                !
 ! D20   D(3,2,9,10)           175.2243         estimate D2E/DX2                !
 ! D21   D(2,3,5,6)           -179.6786         estimate D2E/DX2                !
 ! D22   D(2,3,5,7)             -0.3767         estimate D2E/DX2                !
 ! D23   D(4,3,5,6)              0.0637         estimate D2E/DX2                !
 ! D24   D(4,3,5,7)            179.3656         estimate D2E/DX2                !
 ! D25   D(3,5,7,8)           -177.4725         estimate D2E/DX2                !
 ! D26   D(3,5,7,9)              0.2402         estimate D2E/DX2                !
 ! D27   D(6,5,7,8)              1.81           estimate D2E/DX2                !
 ! D28   D(6,5,7,9)            179.5227         estimate D2E/DX2                !
 ! D29   D(5,7,9,2)             -0.034          estimate D2E/DX2                !
 ! D30   D(5,7,9,10)          -174.9099         estimate D2E/DX2                !
 ! D31   D(8,7,9,2)            177.757          estimate D2E/DX2                !
 ! D32   D(8,7,9,10)             2.881          estimate D2E/DX2                !
 ! D33   D(2,9,10,18)           -7.4332         estimate D2E/DX2                !
 ! D34   D(2,9,10,21)          176.5061         estimate D2E/DX2                !
 ! D35   D(7,9,10,18)          166.8291         estimate D2E/DX2                !
 ! D36   D(7,9,10,21)           -9.2316         estimate D2E/DX2                !
 ! D37   D(9,10,18,11)           5.2187         estimate D2E/DX2                !
 ! D38   D(9,10,18,16)        -173.518          estimate D2E/DX2                !
 ! D39   D(21,10,18,11)       -178.7964         estimate D2E/DX2                !
 ! D40   D(21,10,18,16)          2.4669         estimate D2E/DX2                !
 ! D41   D(9,10,21,22)         -48.0529         estimate D2E/DX2                !
 ! D42   D(9,10,21,29)         131.2477         estimate D2E/DX2                !
 ! D43   D(18,10,21,22)        136.0786         estimate D2E/DX2                !
 ! D44   D(18,10,21,29)        -44.6208         estimate D2E/DX2                !
 ! D45   D(1,11,12,13)          -8.8275         estimate D2E/DX2                !
 ! D46   D(1,11,12,14)         169.7613         estimate D2E/DX2                !
 ! D47   D(18,11,12,13)       -179.101          estimate D2E/DX2                !
 ! D48   D(18,11,12,14)         -0.5122         estimate D2E/DX2                !
 ! D49   D(1,11,18,10)          11.7687         estimate D2E/DX2                !
 ! D50   D(1,11,18,16)        -169.224          estimate D2E/DX2                !
 ! D51   D(12,11,18,10)       -178.0834         estimate D2E/DX2                !
 ! D52   D(12,11,18,16)          0.9239         estimate D2E/DX2                !
 ! D53   D(11,12,14,15)       -179.3992         estimate D2E/DX2                !
 ! D54   D(11,12,14,16)         -0.1077         estimate D2E/DX2                !
 ! D55   D(13,12,14,15)         -0.9753         estimate D2E/DX2                !
 ! D56   D(13,12,14,16)        178.3163         estimate D2E/DX2                !
 ! D57   D(12,14,16,17)       -178.815          estimate D2E/DX2                !
 ! D58   D(12,14,16,18)          0.6698         estimate D2E/DX2                !
 ! D59   D(15,14,16,17)          0.4581         estimate D2E/DX2                !
 ! D60   D(15,14,16,18)        179.9429         estimate D2E/DX2                !
 ! D61   D(14,16,18,10)        177.8861         estimate D2E/DX2                !
 ! D62   D(14,16,18,11)         -0.9781         estimate D2E/DX2                !
 ! D63   D(17,16,18,10)         -2.6165         estimate D2E/DX2                !
 ! D64   D(17,16,18,11)        178.5194         estimate D2E/DX2                !
 ! D65   D(10,21,22,23)         -1.7071         estimate D2E/DX2                !
 ! D66   D(10,21,22,24)        179.8587         estimate D2E/DX2                !
 ! D67   D(29,21,22,23)        178.9726         estimate D2E/DX2                !
 ! D68   D(29,21,22,24)          0.5384         estimate D2E/DX2                !
 ! D69   D(10,21,29,27)       -179.6554         estimate D2E/DX2                !
 ! D70   D(10,21,29,30)         -1.9676         estimate D2E/DX2                !
 ! D71   D(22,21,29,27)         -0.3436         estimate D2E/DX2                !
 ! D72   D(22,21,29,30)        177.3442         estimate D2E/DX2                !
 ! D73   D(21,22,24,25)        179.2105         estimate D2E/DX2                !
 ! D74   D(21,22,24,26)         -0.3177         estimate D2E/DX2                !
 ! D75   D(23,22,24,25)          0.7878         estimate D2E/DX2                !
 ! D76   D(23,22,24,26)       -178.7403         estimate D2E/DX2                !
 ! D77   D(22,24,26,27)         -0.1076         estimate D2E/DX2                !
 ! D78   D(22,24,26,31)       -179.9429         estimate D2E/DX2                !
 ! D79   D(25,24,26,27)       -179.6332         estimate D2E/DX2                !
 ! D80   D(25,24,26,31)          0.5314         estimate D2E/DX2                !
 ! D81   D(24,26,27,28)       -179.042          estimate D2E/DX2                !
 ! D82   D(24,26,27,29)          0.302          estimate D2E/DX2                !
 ! D83   D(31,26,27,28)          0.7933         estimate D2E/DX2                !
 ! D84   D(31,26,27,29)       -179.8627         estimate D2E/DX2                !
 ! D85   D(26,27,29,21)         -0.0728         estimate D2E/DX2                !
 ! D86   D(26,27,29,30)       -177.7536         estimate D2E/DX2                !
 ! D87   D(28,27,29,21)        179.2748         estimate D2E/DX2                !
 ! D88   D(28,27,29,30)          1.594          estimate D2E/DX2                !
 --------------------------------------------------------------------------------
 Trust Radius=3.00D-01 FncErr=5.00D-06 GrdErr=5.00D-06 EigMax=2.50D+02 EigMin=1.00D-04
 Number of steps in this run=    186 maximum allowed number of steps=    186.
 GradGradGradGradGradGradGradGradGradGradGradGradGradGradGradGradGradGrad

 Leave Link  103 at Mon Jan 31 13:50:12 2022, MaxMem= 49660559360 cpu:               1.0 elap:               0.0
 (Enter /lustre1/prg/gaussian/bin/G16_C01_Linda_AVX2/g16/l202.exe)
                          Input orientation:                          
 ---------------------------------------------------------------------
 Center     Atomic      Atomic             Coordinates (Angstroms)
 Number     Number       Type             X           Y           Z
 ---------------------------------------------------------------------
      1          5           0       -0.022314   -0.318076    0.013326
      2          7           0       -0.001707   -0.085693    1.541792
      3          6           0        1.091803    0.044455    2.297107
      4          1           0        2.081188    0.038188    1.844910
      5          6           0        0.719696    0.182717    3.661938
      6          1           0        1.408889    0.309587    4.491930
      7          6           0       -0.667405    0.140073    3.713632
      8          1           0       -1.304943    0.252470    4.585053
      9          6           0       -1.128691   -0.029848    2.377234
     10          6           0       -2.452248   -0.040163    1.849047
     11          7           0       -1.467979    0.043992   -0.407485
     12          6           0       -1.882790    0.186621   -1.668830
     13          1           0       -1.168572    0.190570   -2.489452
     14          6           0       -3.299670    0.284113   -1.701663
     15          1           0       -3.902475    0.396698   -2.598289
     16          6           0       -3.746979    0.191894   -0.390067
     17          1           0       -4.773831    0.209893   -0.040610
     18          6           0       -2.594010    0.054270    0.435426
     19          9           0        0.895627    0.512622   -0.619808
     20          9           0        0.246848   -1.654425   -0.284657
     21          6           0       -3.611125   -0.057918    2.751186
     22          6           0       -3.659829   -0.970100    3.821089
     23          1           0       -2.842011   -1.680278    3.954782
     24          6           0       -4.751175   -0.994310    4.684132
     25          1           0       -4.776635   -1.717415    5.500070
     26          6           0       -5.812242   -0.105768    4.502054
     27          6           0       -5.771788    0.809705    3.449932
     28          1           0       -6.589016    1.518026    3.309473
     29          6           0       -4.684012    0.835107    2.581429
     30          1           0       -4.643713    1.578247    1.784107
     31          1           0       -6.666295   -0.125256    5.179633
 ---------------------------------------------------------------------
                    Distance matrix (angstroms):
                    1          2          3          4          5
     1  B    0.000000
     2  N    1.546168   0.000000
     3  C    2.566776   1.335366   0.000000
     4  H    2.811822   2.108478   1.087844   0.000000
     5  C    3.756826   2.255545   1.421388   2.275113   0.000000
     6  H    4.743437   3.293834   2.233402   2.744514   1.086264
     7  C    3.783954   2.282764   2.260641   3.325247   1.388719
     8  H    4.782400   3.327794   3.319994   4.361214   2.226246
     9  C    2.625873   1.403985   2.223181   3.254431   2.261014
    10  C    3.058053   2.470148   3.573264   4.534115   3.660257
    11  N    1.548587   2.442632   3.723883   4.203558   4.622269
    12  C    2.558464   3.731048   4.959543   5.299200   5.932119
    13  H    2.799380   4.205808   5.295450   5.419488   6.434689
    14  C    3.747650   4.640400   5.944126   6.449209   6.703268
    15  H    4.731499   5.708674   7.002270   7.461553   7.784645
    16  C    3.780995   4.223292   5.536827   6.243899   6.030756
    17  H    4.781064   5.036322   6.316483   7.111677   6.624835
    18  C    2.632571   2.821998   4.129306   4.883071   4.626827
    19  F    1.390516   2.415720   2.960753   2.775874   4.298039
    20  F    1.395375   2.420458   3.204005   3.280975   4.378846
    21  C    4.521407   3.806744   4.725907   5.764807   4.432086
    22  C    5.306195   4.399912   5.092136   6.154771   4.531507
    23  H    5.034020   4.053708   4.604072   5.625173   4.030169
    24  C    6.681006   5.766917   6.396664   7.470503   5.688647
    25  H    7.393651   6.413300   6.913879   7.966936   6.099089
    26  C    7.329190   6.521186   7.249151   8.329908   6.592058
    27  C    6.792540   6.143010   7.001678   8.052364   6.525138
    28  H    7.573469   7.006372   7.886145   8.916687   7.438048
    29  C    5.445770   4.883922   5.836609   6.851677   5.549160
    30  H    5.299909   4.937168   5.959180   6.899259   5.851488
    31  H    8.418455   7.592904   8.278034   9.362988   7.546596
                    6          7          8          9         10
     6  H    0.000000
     7  C    2.223843   0.000000
     8  H    2.716030   1.085570   0.000000
     9  C    3.320613   1.423944   2.232764   0.000000
    10  C    4.692071   2.587436   2.981220   1.425093   0.000000
    11  N    5.687810   4.199257   4.999548   2.806284   2.463291
    12  C    6.986074   5.518172   6.280867   4.121427   3.570878
    13  H    7.442927   6.223501   7.076090   4.871838   4.530302
    14  C    7.780217   6.022872   6.595660   4.631320   3.664808
    15  H    8.859423   7.097315   7.639920   5.712412   4.698170
    16  C    7.101459   5.130965   5.542475   3.816092   2.596885
    17  H    7.666804   5.564346   5.782020   4.380695   3.003844
    18  C    5.704701   3.803394   4.349756   2.434102   1.423846
    19  F    5.141452   4.621749   5.656922   3.657102   4.196318
    20  F    5.293719   4.476874   5.455124   3.408375   3.800481
    21  C    5.325954   3.103384   2.962749   2.510599   1.468729
    22  C    5.270629   3.193530   2.761124   3.061936   2.492385
    23  H    4.724219   2.846180   2.548595   2.854478   2.697408
    24  C    6.299482   4.348088   3.666169   4.401631   3.772687
    25  H    6.586789   4.850504   4.095162   5.089939   4.641758
    26  C    7.233074   5.210700   4.522275   5.143566   4.281625
    27  C    7.273101   5.154869   4.642382   4.838789   3.782123
    28  H    8.174657   6.093240   5.581233   5.751533   4.655496
    29  C    6.406998   4.230613   3.971408   3.664717   2.506641
    30  H    6.750985   4.647842   4.555257   3.910646   2.725066
    31  H    8.116072   6.181120   5.407430   6.207061   5.371986
                   11         12         13         14         15
    11  N    0.000000
    12  C    1.335441   0.000000
    13  H    2.108487   1.087908   0.000000
    14  C    2.255581   1.420610   2.273970   0.000000
    15  H    3.294054   2.233194   2.743822   1.086272   0.000000
    16  C    2.283861   2.260633   3.324997   1.388839   2.223144
    17  H    3.330282   3.318096   4.358336   2.222106   2.708483
    18  C    1.406610   2.225139   3.256588   2.262285   3.321561
    19  F    2.418952   2.987696   2.803605   4.338565   5.191301
    20  F    2.416679   3.136996   3.204456   4.282946   5.174638
    21  C    3.818463   4.752208   5.787236   4.476813   5.376657
    22  C    4.869643   5.885158   6.883055   5.674818   6.567757
    23  H    4.887785   6.002535   6.915824   6.005302   6.955656
    24  C    6.146707   7.069820   8.105510   6.672302   7.462496
    25  H    6.996354   7.961961   8.971677   7.619219   8.415287
    26  C    6.557333   7.321605   8.398371   6.704560   7.369841
    27  C    5.829987   6.458658   7.539841   5.738166   6.343964
    28  H    6.497197   6.978875   8.048036   6.119953   6.586086
    29  C    4.461204   5.131479   6.203836   4.534851   5.256661
    30  H    4.152385   4.634878   5.680278   3.953711   4.599009
    31  H    7.633284   8.359464   9.441375   7.671635   8.270865
                   16         17         18         19         20
    16  C    0.000000
    17  H    1.084836   0.000000
    18  C    1.424681   2.236615   0.000000
    19  F    4.659339   5.707002   3.674394   0.000000
    20  F    4.401211   5.361199   3.392438   2.286774   0.000000
    21  C    3.154098   3.036072   2.531769   5.656848   5.162280
    22  C    4.369400   4.188807   3.694322   6.532397   5.708553
    23  H    4.816815   4.823674   3.931416   6.301240   5.245432
    24  C    5.306881   4.875839   4.878974   7.892338   7.078478
    25  H    6.276891   5.866316   5.792524   8.637160   7.661750
    26  C    5.318530   4.670518   5.188458   8.462351   7.875501
    27  C    4.384876   3.679616   4.444795   7.816998   7.499538
    28  H    4.849989   4.028544   5.134472   8.512929   8.349326
    29  C    3.181437   2.697044   3.095665   6.440830   6.222990
    30  H    2.730044   2.284495   2.888378   6.131774   6.216715
    31  H    6.296392   5.562794   6.254857   9.551077   8.943622
                   21         22         23         24         25
    21  C    0.000000
    22  C    1.406819   0.000000
    23  H    2.161535   1.091354   0.000000
    24  C    2.431630   1.391569   2.155785   0.000000
    25  H    3.415949   2.150514   2.476301   1.090543   0.000000
    26  C    2.812960   2.417367   3.406004   1.395895   2.160075
    27  C    2.430942   2.786725   3.877948   2.412337   3.402900
    28  H    3.415131   3.877197   4.968462   3.402819   4.307147
    29  C    1.406200   2.417536   3.406791   2.787945   3.878455
    30  H    2.162988   3.407550   4.309982   3.878111   4.968645
    31  H    3.903326   3.405619   4.306217   2.160662   2.491679
                   26         27         28         29         30
    26  C    0.000000
    27  C    1.395238   0.000000
    28  H    2.159244   1.090554   0.000000
    29  C    2.418047   1.392192   2.150690   0.000000
    30  H    3.404204   2.153644   2.472766   1.090689   0.000000
    31  H    1.090367   2.160130   2.490752   3.406231   4.303761
                   31
    31  H    0.000000
 Symmetry turned off by external request.
 Stoichiometry    C15H11BF2N2
 Framework group  C1[X(C15H11BF2N2)]
 Deg. of freedom    87
 Full point group                 C1      NOp   1
 Rotational constants (GHZ):           0.5797333           0.2799164           0.2047989
 Leave Link  202 at Mon Jan 31 13:50:12 2022, MaxMem= 49660559360 cpu:               0.6 elap:               0.0
 (Enter /lustre1/prg/gaussian/bin/G16_C01_Linda_AVX2/g16/l301.exe)
 Standard basis: CC-pVDZ (5D, 7F)
 Ernie: Thresh=  0.10000D-02 Tol=  0.10000D-05 Strict=F.
 Ernie:  40 primitive shells out of 495 were deleted.
   335 basis functions,   737 primitive gaussians,   355 cartesian basis functions
    69 alpha electrons       69 beta electrons
       nuclear repulsion energy      1466.6538474170 Hartrees.
 IExCor= 4336 DFT=T Ex+Corr=M062X ExCW=0 ScaHFX=  0.540000
 ScaDFX=  1.000000  1.000000  1.000000  1.000000 ScalE2=  1.000000  1.000000
 IRadAn=      5 IRanWt=     -1 IRanGd=            0 ICorTp=0 IEmpDi=  4
 NAtoms=   31 NActive=   31 NUniq=   31 SFac= 1.00D+00 NAtFMM=   60 NAOKFM=F Big=F
 Integral buffers will be    131072 words long.
 Regular integral format.
 Two-electron integral symmetry is turned off.
 ------------------------------------------------------------------------------
 Polarizable Continuum Model (PCM)
 =================================
 Model                : C-PCM.
 Atomic radii         : UFF (Universal Force Field).
 Polarization charges : Total charges.
 Charge compensation  : None.
 Solution method      : On-the-fly selection.
 Cavity type          : Scaled VdW (van der Waals Surface) (Alpha=1.100).
 Cavity algorithm     : GePol (No added spheres)
                        Default sphere list used, NSphG=   31.
                        Lebedev-Laikov grids with approx.  5.0 points / Ang**2.
                        Smoothing algorithm: York/Karplus (Gamma=1.0000).
                        Polarization charges: spherical gaussians, with
                                              point-specific exponents (IZeta= 3).
                        Self-potential: point-specific (ISelfS= 7).
                        Self-field    : sphere-specific E.n sum rule (ISelfD= 2).
 1st derivatives      : Analytical E(r).r(x)/FMM algorithm (CHGder, D1EAlg=3).
                        Cavity 1st derivative terms included.
 Solvent              : Methanol, Eps=  32.613000 Eps(inf)=   1.765709
 ------------------------------------------------------------------------------
 GePol: Number of generator spheres                  =      31
 GePol: Total number of spheres                      =      31
 GePol: Number of exposed spheres                    =      31 (100.00%)
 GePol: Number of points                             =    2470
 GePol: Average weight of points                     =       0.13
 GePol: Minimum weight of points                     =   0.30D-11
 GePol: Maximum weight of points                     =    0.20577
 GePol: Number of points with low weight             =     159
 GePol: Fraction of low-weight points (<1% of avg)   =       6.44%
 GePol: Cavity surface area                          =    314.156 Ang**2
 GePol: Cavity volume                                =    345.847 Ang**3
 Leave Link  301 at Mon Jan 31 13:50:13 2022, MaxMem= 49660559360 cpu:               3.3 elap:               0.1
Warning: Permanently added 'fizika346.fizika.bullx' (ECDSA) to the list of known hosts.
 (Enter /lustre1/prg/gaussian/bin/G16_C01_Linda_AVX2/g16/linda-exe/l302.exel)
 NPDir=0 NMtPBC=     1 NCelOv=     1 NCel=       1 NClECP=     1 NCelD=      1
         NCelK=      1 NCelE2=     1 NClLst=     1 CellRange=     0.0.
 One-electron integrals computed using PRISM.
 NBasis=   335 RedAO= T EigKep=  2.82D-04  NBF=   335
 NBsUse=   335 1.00D-06 EigRej= -1.00D+00 NBFU=   335
 Precomputing XC quadrature grid using
 IXCGrd= 4 IRadAn=           5 IRanWt=          -1 IRanGd=           0 AccXCQ= 0.00D+00.
 Generated NRdTot=       0 NPtTot=           0 NUsed=           0 NTot=          32
 NSgBfM=   354   354   354   354   354 MxSgAt=    31 MxSgA2=    31.
 Leave Link  302 at Mon Jan 31 13:50:14 2022, MaxMem= 49660559360 cpu:              19.6 elap:               0.6
 (Enter /lustre1/prg/gaussian/bin/G16_C01_Linda_AVX2/g16/l303.exe)
 DipDrv:  MaxL=1.
 Leave Link  303 at Mon Jan 31 13:50:14 2022, MaxMem= 49660559360 cpu:               3.5 elap:               0.1
 (Enter /lustre1/prg/gaussian/bin/G16_C01_Linda_AVX2/g16/l308.exe)
 Leave Link  308 at Mon Jan 31 13:50:15 2022, MaxMem= 49660559360 cpu:               3.4 elap:               0.1
 (Enter /lustre1/prg/gaussian/bin/G16_C01_Linda_AVX2/g16/linda-exe/l401.exel)
 ExpMin= 9.54D-02 ExpMax= 1.47D+04 ExpMxC= 5.03D+02 IAcc=3 IRadAn=         5 AccDes= 0.00D+00
 Harris functional with IExCor= 1009 and IRadAn=       5 diagonalized for initial guess.
 HarFok:  IExCor= 1009 AccDes= 0.00D+00 IRadAn=         5 IDoV= 1 UseB2=F ITyADJ=14
 ICtDFT=  3500011 ScaDFX=  1.000000  1.000000  1.000000  1.000000
 FoFCou: FMM=F IPFlag=           0 FMFlag=      100000 FMFlg1=           0
         NFxFlg=           0 DoJE=T BraDBF=F KetDBF=T FulRan=T
         wScrn=  0.000000 ICntrl=       500 IOpCl=  0 I1Cent=   200000004 NGrid=           0
         NMat0=    1 NMatS0=      1 NMatT0=    0 NMatD0=    1 NMtDS0=    0 NMtDT0=    0
 Symmetry not used in FoFCou.
 Harris En= -911.573640148926    
 JPrj=0 DoOrth=F DoCkMO=F.
 Leave Link  401 at Mon Jan 31 13:50:17 2022, MaxMem= 49660559360 cpu:              38.4 elap:               1.2
 (Enter /lustre1/prg/gaussian/bin/G16_C01_Linda_AVX2/g16/linda-exe/l502.exel)
 Two-electron integral symmetry not used.
 Closed shell SCF:
 Using DIIS extrapolation, IDIIS=  1040.
 NGot= 49660559360 LenX= 49660292335 LenY= 49660165869
 Requested convergence on RMS density matrix=1.00D-08 within 128 cycles.
 Requested convergence on MAX density matrix=1.00D-06.
 Requested convergence on             energy=1.00D-06.
 No special actions if energy rises.
 Fock matrices will be formed incrementally for  20 cycles.

 Cycle   1  Pass 1  IDiag  1:
 FoFJK:  IHMeth= 1 ICntrl=       0 DoSepK=F KAlg= 0 I1Cent=           0 FoldK=F
 IRaf= 870000000 NMat=       1 IRICut=       1 DoRegI=T DoRafI=F ISym2E= 0 IDoP0=0 IntGTp=1.
 FoFCou: FMM=F IPFlag=           0 FMFlag=      100000 FMFlg1=           0
         NFxFlg=           0 DoJE=F BraDBF=F KetDBF=F FulRan=T
         wScrn=  0.000000 ICntrl=         0 IOpCl=  0 I1Cent=           0 NGrid=           0
         NMat0=    1 NMatS0=      1 NMatT0=    0 NMatD0=    1 NMtDS0=    0 NMtDT0=    0
 Symmetry not used in FoFCou.
 Inv3:  Mode=1 IEnd=    18302700.
 Iteration    1 A*A^-1 deviation from unit magnitude is 3.11D-15 for    882.
 Iteration    1 A*A^-1 deviation from orthogonality  is 1.67D-15 for   2402    253.
 Iteration    1 A^-1*A deviation from unit magnitude is 2.89D-15 for    882.
 Iteration    1 A^-1*A deviation from orthogonality  is 2.47D-15 for   1635    998.
 E= -911.878135640743    
 DIIS: error= 2.00D-02 at cycle   1 NSaved=   1.
 NSaved= 1 IEnMin= 1 EnMin= -911.878135640743     IErMin= 1 ErrMin= 2.00D-02
 ErrMax= 2.00D-02  0.00D+00 EMaxC= 1.00D-01 BMatC= 3.29D-01 BMatP= 3.29D-01
 IDIUse=3 WtCom= 8.00D-01 WtEn= 2.00D-01
 Coeff-Com:  0.100D+01
 Coeff-En:   0.100D+01
 Coeff:      0.100D+01
 Gap=     0.174 Goal=   None    Shift=    0.000
 GapD=    0.174 DampG=1.000 DampE=0.500 DampFc=0.5000 IDamp=-1.
 Damping current iteration by 5.00D-01
 RMSDP=3.53D-03 MaxDP=9.83D-02              OVMax= 1.49D-01

 Cycle   2  Pass 1  IDiag  1:
 RMSU=  1.70D-03    CP:  9.75D-01
 E= -912.036337181559     Delta-E=       -0.158201540816 Rises=F Damp=T
 DIIS: error= 5.94D-03 at cycle   2 NSaved=   2.
 NSaved= 2 IEnMin= 2 EnMin= -912.036337181559     IErMin= 2 ErrMin= 5.94D-03
 ErrMax= 5.94D-03  0.00D+00 EMaxC= 1.00D-01 BMatC= 2.86D-02 BMatP= 3.29D-01
 IDIUse=3 WtCom= 9.41D-01 WtEn= 5.94D-02
 Coeff-Com: -0.101D+00 0.110D+01
 Coeff-En:   0.000D+00 0.100D+01
 Coeff:     -0.950D-01 0.110D+01
 Gap=     0.183 Goal=   None    Shift=    0.000
 RMSDP=1.23D-03 MaxDP=5.63D-02 DE=-1.58D-01 OVMax= 9.13D-02

 Cycle   3  Pass 1  IDiag  1:
 RMSU=  1.00D-03    CP:  9.56D-01  1.36D+00
 E= -912.178288960650     Delta-E=       -0.141951779091 Rises=F Damp=F
 DIIS: error= 5.06D-03 at cycle   3 NSaved=   3.
 NSaved= 3 IEnMin= 3 EnMin= -912.178288960650     IErMin= 3 ErrMin= 5.06D-03
 ErrMax= 5.06D-03  0.00D+00 EMaxC= 1.00D-01 BMatC= 1.33D-02 BMatP= 2.86D-02
 IDIUse=3 WtCom= 9.49D-01 WtEn= 5.06D-02
 Coeff-Com: -0.110D+00 0.468D+00 0.641D+00
 Coeff-En:   0.000D+00 0.000D+00 0.100D+01
 Coeff:     -0.104D+00 0.445D+00 0.659D+00
 Gap=     0.172 Goal=   None    Shift=    0.000
 RMSDP=4.38D-04 MaxDP=2.10D-02 DE=-1.42D-01 OVMax= 4.57D-02

 Cycle   4  Pass 1  IDiag  1:
 RMSU=  3.17D-04    CP:  9.58D-01  1.40D+00  7.08D-01
 E= -912.188859726206     Delta-E=       -0.010570765556 Rises=F Damp=F
 DIIS: error= 2.97D-03 at cycle   4 NSaved=   4.
 NSaved= 4 IEnMin= 4 EnMin= -912.188859726206     IErMin= 4 ErrMin= 2.97D-03
 ErrMax= 2.97D-03  0.00D+00 EMaxC= 1.00D-01 BMatC= 2.48D-03 BMatP= 1.33D-02
 IDIUse=3 WtCom= 9.70D-01 WtEn= 2.97D-02
 Coeff-Com: -0.362D-01 0.957D-01 0.341D+00 0.600D+00
 Coeff-En:   0.000D+00 0.000D+00 0.146D+00 0.854D+00
 Coeff:     -0.351D-01 0.928D-01 0.335D+00 0.607D+00
 Gap=     0.175 Goal=   None    Shift=    0.000
 RMSDP=1.49D-04 MaxDP=7.85D-03 DE=-1.06D-02 OVMax= 1.82D-02

 Cycle   5  Pass 1  IDiag  1:
 RMSU=  6.38D-05    CP:  9.57D-01  1.40D+00  7.90D-01  6.64D-01
 E= -912.191309579022     Delta-E=       -0.002449852815 Rises=F Damp=F
 DIIS: error= 3.07D-04 at cycle   5 NSaved=   5.
 NSaved= 5 IEnMin= 5 EnMin= -912.191309579022     IErMin= 5 ErrMin= 3.07D-04
 ErrMax= 3.07D-04  0.00D+00 EMaxC= 1.00D-01 BMatC= 8.71D-05 BMatP= 2.48D-03
 IDIUse=3 WtCom= 9.97D-01 WtEn= 3.07D-03
 Coeff-Com: -0.836D-02 0.130D-01 0.100D+00 0.252D+00 0.643D+00
 Coeff-En:   0.000D+00 0.000D+00 0.000D+00 0.000D+00 0.100D+01
 Coeff:     -0.833D-02 0.130D-01 0.100D+00 0.251D+00 0.644D+00
 Gap=     0.175 Goal=   None    Shift=    0.000
 RMSDP=2.74D-05 MaxDP=1.79D-03 DE=-2.45D-03 OVMax= 2.87D-03

 Cycle   6  Pass 1  IDiag  1:
 RMSU=  1.85D-05    CP:  9.57D-01  1.40D+00  7.93D-01  6.99D-01  7.54D-01
 E= -912.191388262127     Delta-E=       -0.000078683105 Rises=F Damp=F
 DIIS: error= 6.73D-05 at cycle   6 NSaved=   6.
 NSaved= 6 IEnMin= 6 EnMin= -912.191388262127     IErMin= 6 ErrMin= 6.73D-05
 ErrMax= 6.73D-05  0.00D+00 EMaxC= 1.00D-01 BMatC= 4.81D-06 BMatP= 8.71D-05
 IDIUse=1 WtCom= 1.00D+00 WtEn= 0.00D+00
 Coeff-Com: -0.132D-02-0.206D-05 0.195D-01 0.627D-01 0.252D+00 0.668D+00
 Coeff:     -0.132D-02-0.206D-05 0.195D-01 0.627D-01 0.252D+00 0.668D+00
 Gap=     0.175 Goal=   None    Shift=    0.000
 RMSDP=6.94D-06 MaxDP=2.92D-04 DE=-7.87D-05 OVMax= 5.51D-04

 Cycle   7  Pass 1  IDiag  1:
 RMSU=  5.84D-06    CP:  9.57D-01  1.41D+00  7.94D-01  7.01D-01  8.00D-01
                    CP:  8.89D-01
 E= -912.191392967660     Delta-E=       -0.000004705533 Rises=F Damp=F
 DIIS: error= 2.72D-05 at cycle   7 NSaved=   7.
 NSaved= 7 IEnMin= 7 EnMin= -912.191392967660     IErMin= 7 ErrMin= 2.72D-05
 ErrMax= 2.72D-05  0.00D+00 EMaxC= 1.00D-01 BMatC= 2.96D-07 BMatP= 4.81D-06
 IDIUse=1 WtCom= 1.00D+00 WtEn= 0.00D+00
 Coeff-Com:  0.512D-03-0.144D-02-0.515D-02-0.866D-02 0.559D-02 0.156D+00
 Coeff-Com:  0.853D+00
 Coeff:      0.512D-03-0.144D-02-0.515D-02-0.866D-02 0.559D-02 0.156D+00
 Coeff:      0.853D+00
 Gap=     0.175 Goal=   None    Shift=    0.000
 RMSDP=3.16D-06 MaxDP=1.19D-04 DE=-4.71D-06 OVMax= 4.25D-04

 Cycle   8  Pass 1  IDiag  1:
 RMSU=  2.20D-06    CP:  9.57D-01  1.41D+00  7.94D-01  7.04D-01  8.09D-01
                    CP:  9.89D-01  1.02D+00
 E= -912.191393320300     Delta-E=       -0.000000352640 Rises=F Damp=F
 DIIS: error= 2.39D-05 at cycle   8 NSaved=   8.
 NSaved= 8 IEnMin= 8 EnMin= -912.191393320300     IErMin= 8 ErrMin= 2.39D-05
 ErrMax= 2.39D-05  0.00D+00 EMaxC= 1.00D-01 BMatC= 1.42D-07 BMatP= 2.96D-07
 IDIUse=1 WtCom= 1.00D+00 WtEn= 0.00D+00
 Coeff-Com:  0.479D-03-0.802D-03-0.548D-02-0.134D-01-0.319D-01-0.168D-01
 Coeff-Com:  0.470D+00 0.598D+00
 Coeff:      0.479D-03-0.802D-03-0.548D-02-0.134D-01-0.319D-01-0.168D-01
 Coeff:      0.470D+00 0.598D+00
 Gap=     0.175 Goal=   None    Shift=    0.000
 RMSDP=1.32D-06 MaxDP=7.88D-05 DE=-3.53D-07 OVMax= 1.58D-04

 Cycle   9  Pass 1  IDiag  1:
 RMSU=  7.72D-07    CP:  9.57D-01  1.41D+00  7.95D-01  7.04D-01  8.16D-01
                    CP:  1.00D+00  1.11D+00  6.97D-01
 E= -912.191393480011     Delta-E=       -0.000000159711 Rises=F Damp=F
 DIIS: error= 2.34D-06 at cycle   9 NSaved=   9.
 NSaved= 9 IEnMin= 9 EnMin= -912.191393480011     IErMin= 9 ErrMin= 2.34D-06
 ErrMax= 2.34D-06  0.00D+00 EMaxC= 1.00D-01 BMatC= 4.21D-09 BMatP= 1.42D-07
 IDIUse=1 WtCom= 1.00D+00 WtEn= 0.00D+00
 Coeff-Com:  0.983D-04-0.114D-03-0.116D-02-0.316D-02-0.959D-02-0.180D-01
 Coeff-Com:  0.725D-01 0.175D+00 0.785D+00
 Coeff:      0.983D-04-0.114D-03-0.116D-02-0.316D-02-0.959D-02-0.180D-01
 Coeff:      0.725D-01 0.175D+00 0.785D+00
 Gap=     0.175 Goal=   None    Shift=    0.000
 RMSDP=3.35D-07 MaxDP=1.21D-05 DE=-1.60D-07 OVMax= 3.78D-05

 Cycle  10  Pass 1  IDiag  1:
 RMSU=  2.31D-07    CP:  9.57D-01  1.41D+00  7.95D-01  7.04D-01  8.17D-01
                    CP:  1.01D+00  1.13D+00  7.72D-01  9.70D-01
 E= -912.191393486206     Delta-E=       -0.000000006195 Rises=F Damp=F
 DIIS: error= 1.26D-06 at cycle  10 NSaved=  10.
 NSaved=10 IEnMin=10 EnMin= -912.191393486206     IErMin=10 ErrMin= 1.26D-06
 ErrMax= 1.26D-06  0.00D+00 EMaxC= 1.00D-01 BMatC= 8.73D-10 BMatP= 4.21D-09
 IDIUse=1 WtCom= 1.00D+00 WtEn= 0.00D+00
 Coeff-Com: -0.181D-04 0.492D-04 0.194D-03 0.370D-03-0.797D-04-0.587D-02
 Coeff-Com: -0.285D-01-0.106D-01 0.311D+00 0.733D+00
 Coeff:     -0.181D-04 0.492D-04 0.194D-03 0.370D-03-0.797D-04-0.587D-02
 Coeff:     -0.285D-01-0.106D-01 0.311D+00 0.733D+00
 Gap=     0.175 Goal=   None    Shift=    0.000
 RMSDP=1.26D-07 MaxDP=6.06D-06 DE=-6.20D-09 OVMax= 1.53D-05

 Cycle  11  Pass 1  IDiag  1:
 RMSU=  8.44D-08    CP:  9.57D-01  1.41D+00  7.95D-01  7.04D-01  8.17D-01
                    CP:  1.01D+00  1.13D+00  7.86D-01  1.06D+00  9.23D-01
 E= -912.191393487332     Delta-E=       -0.000000001126 Rises=F Damp=F
 DIIS: error= 3.76D-07 at cycle  11 NSaved=  11.
 NSaved=11 IEnMin=11 EnMin= -912.191393487332     IErMin=11 ErrMin= 3.76D-07
 ErrMax= 3.76D-07  0.00D+00 EMaxC= 1.00D-01 BMatC= 1.04D-10 BMatP= 8.73D-10
 IDIUse=1 WtCom= 1.00D+00 WtEn= 0.00D+00
 Coeff-Com: -0.217D-04 0.367D-04 0.242D-03 0.615D-03 0.132D-02 0.349D-04
 Coeff-Com: -0.219D-01-0.322D-01 0.247D-01 0.297D+00 0.730D+00
 Coeff:     -0.217D-04 0.367D-04 0.242D-03 0.615D-03 0.132D-02 0.349D-04
 Coeff:     -0.219D-01-0.322D-01 0.247D-01 0.297D+00 0.730D+00
 Gap=     0.175 Goal=   None    Shift=    0.000
 RMSDP=4.61D-08 MaxDP=1.67D-06 DE=-1.13D-09 OVMax= 4.67D-06

 Cycle  12  Pass 1  IDiag  1:
 RMSU=  2.73D-08    CP:  9.57D-01  1.41D+00  7.95D-01  7.04D-01  8.17D-01
                    CP:  1.01D+00  1.14D+00  7.87D-01  1.10D+00  1.02D+00
                    CP:  9.09D-01
 E= -912.191393487449     Delta-E=       -0.000000000117 Rises=F Damp=F
 DIIS: error= 7.97D-08 at cycle  12 NSaved=  12.
 NSaved=12 IEnMin=12 EnMin= -912.191393487449     IErMin=12 ErrMin= 7.97D-08
 ErrMax= 7.97D-08  0.00D+00 EMaxC= 1.00D-01 BMatC= 3.92D-12 BMatP= 1.04D-10
 IDIUse=1 WtCom= 1.00D+00 WtEn= 0.00D+00
 Coeff-Com: -0.419D-05 0.623D-05 0.448D-04 0.124D-03 0.312D-03 0.363D-03
 Coeff-Com: -0.288D-02-0.740D-02-0.841D-02 0.301D-01 0.174D+00 0.814D+00
 Coeff:     -0.419D-05 0.623D-05 0.448D-04 0.124D-03 0.312D-03 0.363D-03
 Coeff:     -0.288D-02-0.740D-02-0.841D-02 0.301D-01 0.174D+00 0.814D+00
 Gap=     0.175 Goal=   None    Shift=    0.000
 RMSDP=1.08D-08 MaxDP=3.69D-07 DE=-1.17D-10 OVMax= 1.64D-06

 Cycle  13  Pass 1  IDiag  1:
 RMSU=  8.28D-09    CP:  9.57D-01  1.41D+00  7.95D-01  7.04D-01  8.17D-01
                    CP:  1.01D+00  1.14D+00  7.87D-01  1.10D+00  1.04D+00
                    CP:  9.68D-01  1.04D+00
 E= -912.191393487461     Delta-E=       -0.000000000013 Rises=F Damp=F
 DIIS: error= 3.77D-08 at cycle  13 NSaved=  13.
 NSaved=13 IEnMin=13 EnMin= -912.191393487461     IErMin=13 ErrMin= 3.77D-08
 ErrMax= 3.77D-08  0.00D+00 EMaxC= 1.00D-01 BMatC= 9.83D-13 BMatP= 3.92D-12
 IDIUse=1 WtCom= 1.00D+00 WtEn= 0.00D+00
 Coeff-Com:  0.666D-06-0.147D-05-0.891D-05-0.184D-04-0.162D-04 0.142D-03
 Coeff-Com:  0.125D-02 0.804D-04-0.654D-02-0.247D-01-0.224D-01 0.322D+00
 Coeff-Com:  0.731D+00
 Coeff:      0.666D-06-0.147D-05-0.891D-05-0.184D-04-0.162D-04 0.142D-03
 Coeff:      0.125D-02 0.804D-04-0.654D-02-0.247D-01-0.224D-01 0.322D+00
 Coeff:      0.731D+00
 Gap=     0.175 Goal=   None    Shift=    0.000
 RMSDP=4.80D-09 MaxDP=1.37D-07 DE=-1.27D-11 OVMax= 5.95D-07

 Error on total polarization charges =  0.01107
 SCF Done:  E(RM062X) =  -912.191393487     A.U. after   13 cycles
            NFock= 13  Conv=0.48D-08     -V/T= 2.0063
 KE= 9.064628516417D+02 PE=-5.063161784424D+03 EE= 1.777853691878D+03
 Leave Link  502 at Mon Jan 31 13:50:55 2022, MaxMem= 49660559360 cpu:            1165.1 elap:              37.6
 (Enter /lustre1/prg/gaussian/bin/G16_C01_Linda_AVX2/g16/l801.exe)
 DoSCS=F DFT=T ScalE2(SS,OS)=  1.000000  1.000000
 ExpMin= 9.54D-02 ExpMax= 1.47D+04 ExpMxC= 5.03D+02 IAcc=3 IRadAn=         5 AccDes= 0.00D+00
 HarFok:  IExCor=  205 AccDes= 0.00D+00 IRadAn=         5 IDoV=-2 UseB2=F ITyADJ=14
 ICtDFT= 12500011 ScaDFX=  1.000000  1.000000  1.000000  1.000000
 Largest valence mixing into a core orbital is  7.98D-05
 Largest core mixing into a valence orbital is  4.85D-05
 Range of M.O.s used for correlation:    21   335
 NBasis=   335 NAE=    69 NBE=    69 NFC=    20 NFV=     0
 NROrb=    315 NOA=    49 NOB=    49 NVA=   266 NVB=   266

 **** Warning!!: The largest alpha MO coefficient is  0.12689982D+02

 Leave Link  801 at Mon Jan 31 13:50:56 2022, MaxMem= 49660559360 cpu:               3.7 elap:               0.1
 (Enter /lustre1/prg/gaussian/bin/G16_C01_Linda_AVX2/g16/linda-exe/l914.exel)
 RHF ground state
 Keep R1, R2, and R3 ints in memory in canonical form, NReq=5189770173.
 FoFCou: FMM=F IPFlag=           0 FMFlag=           0 FMFlg1=           0
         NFxFlg=           0 DoJE=F BraDBF=F KetDBF=F FulRan=T
         wScrn=  0.000000 ICntrl=       600 IOpCl=  0 I1Cent=           0 NGrid=           0
         NMat0=    1 NMatS0=  56280 NMatT0=    0 NMatD0=    1 NMtDS0=    0 NMtDT0=    0
 Symmetry not used in FoFCou.
 Two-electron integral symmetry not used.
 MDV= 49660559360 DFT=T DoStab=F Mixed=T DoRPA=T DoScal=F NonHer=T
 NEqPCM:  Using equilibrium solvation (IEInf=0, Eps=  32.6130, EpsInf=   1.7657)
 Making orbital integer symmetry assigments:
    24 initial guesses have been made.
 Convergence on wavefunction:    0.000001000000000
 Davidson Disk Diagonalization:  ConvIn= 1.00D-06 SkipCon=T Conv= 1.00D-06.
 Max sub-space:  2000 roots to seek:    24 dimension of matrix:        26068
 Iteration     1 Dimension    24 NMult     0 NNew     24
 CISAX will form    24 AO SS matrices at one time.
 NMat=    24 NSing=    24 JSym2X= 0.
 Excitation Energies [eV] at current iteration:
 Root      1 :     3.170938767211509
 Root      2 :     4.079759977493814
 Root      3 :     4.285724383447260
 Root      4 :     4.413653008307159
 Root      5 :     4.596544670918476
 Root      6 :     5.739254667509011
 Root      7 :     5.899074817563270
 Root      8 :     5.934302138502817
 Root      9 :     6.067428246741883
 Root     10 :     6.293642643756024
 Root     11 :     6.643997529546002
 Root     12 :     6.783249188431772
 Root     13 :     7.009362599716825
 Root     14 :     7.162615362282198
 Root     15 :     7.302866798151730
 Root     16 :     7.400448605774378
 Root     17 :     7.444253631936975
 Root     18 :     7.469019089790083
 Root     19 :     7.593645333681168
 Root     20 :     7.629048151585691
 Root     21 :     7.708142116424576
 Root     22 :     7.810808890997603
 Root     23 :     8.066810365106560
 Root     24 :     8.260423012457496
 Iteration     2 Dimension    36 NMult    24 NNew     12
 CISAX will form    12 AO SS matrices at one time.
 NMat=    12 NSing=    12 JSym2X= 0.
 Root      1 not converged, maximum delta is    0.053901977159504
 Root      2 not converged, maximum delta is    0.055400861106940
 Root      3 not converged, maximum delta is    0.194325116176112
 New state      4 was old state      5
 Root      4 not converged, maximum delta is    0.161574163493835
 New state      5 was old state      4
 Root      5 not converged, maximum delta is    0.179885857847180
 Root      6 not converged, maximum delta is    0.026872327040844
 Excitation Energies [eV] at current iteration:
 Root      1 :     2.640259024902056   Change is   -0.530679742309454
 Root      2 :     3.826918540455519   Change is   -0.252841437038295
 Root      3 :     3.928796730722044   Change is   -0.356927652725215
 Root      4 :     4.210021047183516   Change is   -0.386523623734961
 Root      5 :     4.303927489661398   Change is   -0.109725518645761
 Root      6 :     5.629686562575354   Change is   -0.109568104933657
 Iteration     3 Dimension    48 NMult    36 NNew     12
 CISAX will form    12 AO SS matrices at one time.
 NMat=    12 NSing=    12 JSym2X= 0.
 Root      1 not converged, maximum delta is    0.015818428251048
 Root      2 not converged, maximum delta is    0.012043180596133
 Root      3 not converged, maximum delta is    0.011448124003031
 Root      4 not converged, maximum delta is    0.011338502890750
 Root      5 not converged, maximum delta is    0.014381893572208
 Root      6 not converged, maximum delta is    0.014706688609735
 Excitation Energies [eV] at current iteration:
 Root      1 :     2.614922358905805   Change is   -0.025336665996251
 Root      2 :     3.812589335594616   Change is   -0.014329204860904
 Root      3 :     3.916636899347280   Change is   -0.012159831374764
 Root      4 :     4.197990845715847   Change is   -0.012030201467668
 Root      5 :     4.295925705455019   Change is   -0.008001784206380
 Root      6 :     5.621959178371922   Change is   -0.007727384203432
 Iteration     4 Dimension    60 NMult    48 NNew     12
 CISAX will form    12 AO SS matrices at one time.
 NMat=    12 NSing=    12 JSym2X= 0.
 Root      1 not converged, maximum delta is    0.002849921421466
 Root      2 not converged, maximum delta is    0.006594560152712
 Root      3 not converged, maximum delta is    0.002902185309938
 Root      4 not converged, maximum delta is    0.003228941459378
 Root      5 not converged, maximum delta is    0.002453926221088
 Root      6 not converged, maximum delta is    0.016773073645468
 Excitation Energies [eV] at current iteration:
 Root      1 :     2.613832557161458   Change is   -0.001089801744347
 Root      2 :     3.811142703906305   Change is   -0.001446631688310
 Root      3 :     3.915796252473065   Change is   -0.000840646874215
 Root      4 :     4.196357346299767   Change is   -0.001633499416080
 Root      5 :     4.295185898120102   Change is   -0.000739807334917
 Root      6 :     5.620341682888984   Change is   -0.001617495482938
 Iteration     5 Dimension    72 NMult    60 NNew     12
 CISAX will form    12 AO SS matrices at one time.
 NMat=    12 NSing=    12 JSym2X= 0.
 Root      1 not converged, maximum delta is    0.000376018707347
 Root      2 not converged, maximum delta is    0.000359929559941
 Root      3 not converged, maximum delta is    0.000380494073433
 Root      4 not converged, maximum delta is    0.001574568249721
 Root      5 not converged, maximum delta is    0.000298490880042
 Root      6 not converged, maximum delta is    0.146904326731478
 Excitation Energies [eV] at current iteration:
 Root      1 :     2.613797031103486   Change is   -0.000035526057971
 Root      2 :     3.811069508796329   Change is   -0.000073195109976
 Root      3 :     3.915752329356972   Change is   -0.000043923116093
 Root      4 :     4.196223897682816   Change is   -0.000133448616951
 Root      5 :     4.295160789397051   Change is   -0.000025108723051
 Root      6 :     5.618686281136605   Change is   -0.001655401752379
 Iteration     6 Dimension    84 NMult    72 NNew     12
 CISAX will form    12 AO SS matrices at one time.
 NMat=    12 NSing=    12 JSym2X= 0.
 Root      1 not converged, maximum delta is    0.000047786949847
 Root      2 not converged, maximum delta is    0.000186511139780
 Root      3 not converged, maximum delta is    0.000064487405195
 Root      4 not converged, maximum delta is    0.000201288530396
 Root      5 not converged, maximum delta is    0.000075648846236
 Root      6 not converged, maximum delta is    0.589539803722743
 Excitation Energies [eV] at current iteration:
 Root      1 :     2.613795340981234   Change is   -0.000001690122252
 Root      2 :     3.811064226400986   Change is   -0.000005282395344
 Root      3 :     3.915750586048445   Change is   -0.000001743308528
 Root      4 :     4.196211529929741   Change is   -0.000012367753076
 Root      5 :     4.295159434965255   Change is   -0.000001354431796
 Root      6 :     5.575270694429824   Change is   -0.043415586706781
 Iteration     7 Dimension    96 NMult    84 NNew     12
 CISAX will form    12 AO SS matrices at one time.
 NMat=    12 NSing=    12 JSym2X= 0.
 Root      1 not converged, maximum delta is    0.000007600219312
 Root      2 not converged, maximum delta is    0.000022769460919
 Root      3 not converged, maximum delta is    0.000014632252902
 Root      4 not converged, maximum delta is    0.000038373326615
 Root      5 not converged, maximum delta is    0.000029950206917
 Root      6 not converged, maximum delta is    0.030740969483924
 Excitation Energies [eV] at current iteration:
 Root      1 :     2.613795234996628   Change is   -0.000000105984606
 Root      2 :     3.811063944580456   Change is   -0.000000281820530
 Root      3 :     3.915750527753556   Change is   -0.000000058294888
 Root      4 :     4.196210754049305   Change is   -0.000000775880436
 Root      5 :     4.295159340941147   Change is   -0.000000094024108
 Root      6 :     5.566912793644124   Change is   -0.008357900785700
 Iteration     8 Dimension   108 NMult    96 NNew     12
 CISAX will form    12 AO SS matrices at one time.
 NMat=    12 NSing=    12 JSym2X= 0.
 Root      1 not converged, maximum delta is    0.000002035440502
 Root      2 not converged, maximum delta is    0.000004620154431
 Root      3 not converged, maximum delta is    0.000004558759479
 Root      4 not converged, maximum delta is    0.000007984753060
 Root      5 not converged, maximum delta is    0.000004080560048
 Root      6 not converged, maximum delta is    0.007224892001325
 Excitation Energies [eV] at current iteration:
 Root      1 :     2.613795230085995   Change is   -0.000000004910633
 Root      2 :     3.811063935134861   Change is   -0.000000009445595
 Root      3 :     3.915750523568390   Change is   -0.000000004185166
 Root      4 :     4.196210716671330   Change is   -0.000000037377975
 Root      5 :     4.295159336177173   Change is   -0.000000004763974
 Root      6 :     5.566074544177477   Change is   -0.000838249466647
 Iteration     9 Dimension   120 NMult   108 NNew     12
 CISAX will form    12 AO SS matrices at one time.
 NMat=    12 NSing=    12 JSym2X= 0.
 Root      1 has converged.
 Root      2 has converged.
 Root      3 has converged.
 Root      4 not converged, maximum delta is    0.000001938433259
 Root      5 has converged.
 Root      6 not converged, maximum delta is    0.000834737752536
 Excitation Energies [eV] at current iteration:
 Root      1 :     2.613795229930405   Change is   -0.000000000155590
 Root      2 :     3.811063934809703   Change is   -0.000000000325158
 Root      3 :     3.915750523376735   Change is   -0.000000000191655
 Root      4 :     4.196210715187810   Change is   -0.000000001483520
 Root      5 :     4.295159335992381   Change is   -0.000000000184793
 Root      6 :     5.566007617717099   Change is   -0.000066926460378
 Iteration    10 Dimension   124 NMult   120 NNew      4
 CISAX will form     4 AO SS matrices at one time.
 NMat=     4 NSing=     4 JSym2X= 0.
 Root      1 has converged.
 Root      2 has converged.
 Root      3 has converged.
 Root      4 has converged.
 Root      5 has converged.
 Root      6 not converged, maximum delta is    0.000272321316903
 Excitation Energies [eV] at current iteration:
 Root      1 :     2.613795229930311   Change is   -0.000000000000094
 Root      2 :     3.811063934809121   Change is   -0.000000000000582
 Root      3 :     3.915750523376043   Change is   -0.000000000000693
 Root      4 :     4.196210715128998   Change is   -0.000000000058812
 Root      5 :     4.295159335989184   Change is   -0.000000000003196
 Root      6 :     5.566001737308828   Change is   -0.000005880408271
 Iteration    11 Dimension   126 NMult   124 NNew      2
 CISAX will form     2 AO SS matrices at one time.
 NMat=     2 NSing=     2 JSym2X= 0.
 Root      1 has converged.
 Root      2 has converged.
 Root      3 has converged.
 Root      4 has converged.
 Root      5 has converged.
 Root      6 not converged, maximum delta is    0.000072577295282
 Excitation Energies [eV] at current iteration:
 Root      1 :     2.613795229930279   Change is   -0.000000000000032
 Root      2 :     3.811063934808992   Change is   -0.000000000000129
 Root      3 :     3.915750523375979   Change is   -0.000000000000063
 Root      4 :     4.196210715128685   Change is   -0.000000000000313
 Root      5 :     4.295159335989108   Change is   -0.000000000000076
 Root      6 :     5.566001249631555   Change is   -0.000000487677273
 Iteration    12 Dimension   128 NMult   126 NNew      2
 CISAX will form     2 AO SS matrices at one time.
 NMat=     2 NSing=     2 JSym2X= 0.
 Root      1 has converged.
 Root      2 has converged.
 Root      3 has converged.
 Root      4 has converged.
 Root      5 has converged.
 Root      6 not converged, maximum delta is    0.000017940483734
 Excitation Energies [eV] at current iteration:
 Root      1 :     2.613795229930122   Change is   -0.000000000000157
 Root      2 :     3.811063934808927   Change is   -0.000000000000065
 Root      3 :     3.915750523375959   Change is   -0.000000000000020
 Root      4 :     4.196210715128645   Change is   -0.000000000000039
 Root      5 :     4.295159335989031   Change is   -0.000000000000076
 Root      6 :     5.566001210689896   Change is   -0.000000038941659
 Iteration    13 Dimension   130 NMult   128 NNew      2
 CISAX will form     2 AO SS matrices at one time.
 NMat=     2 NSing=     2 JSym2X= 0.
 Root      1 has converged.
 Root      2 has converged.
 Root      3 has converged.
 Root      4 has converged.
 Root      5 has converged.
 Root      6 not converged, maximum delta is    0.000004320511658
 Excitation Energies [eV] at current iteration:
 Root      1 :     2.613795229930122   Change is    0.000000000000000
 Root      2 :     3.811063934808884   Change is   -0.000000000000043
 Root      3 :     3.915750523375854   Change is   -0.000000000000105
 Root      4 :     4.196210715128645   Change is    0.000000000000000
 Root      5 :     4.295159335989012   Change is   -0.000000000000020
 Root      6 :     5.566001207871962   Change is   -0.000000002817933
 Iteration    14 Dimension   132 NMult   130 NNew      2
 CISAX will form     2 AO SS matrices at one time.
 NMat=     2 NSing=     2 JSym2X= 0.
 Root      1 has converged.
 Root      2 has converged.
 Root      3 has converged.
 Root      4 has converged.
 Root      5 has converged.
 Root      6 not converged, maximum delta is    0.000001045743848
 Excitation Energies [eV] at current iteration:
 Root      1 :     2.613795229930028   Change is   -0.000000000000094
 Root      2 :     3.811063934808841   Change is   -0.000000000000043
 Root      3 :     3.915750523375833   Change is   -0.000000000000021
 Root      4 :     4.196210715128625   Change is   -0.000000000000020
 Root      5 :     4.295159335988974   Change is   -0.000000000000038
 Root      6 :     5.566001207681656   Change is   -0.000000000190306
 Iteration    15 Dimension   134 NMult   132 NNew      2
 CISAX will form     2 AO SS matrices at one time.
 NMat=     2 NSing=     2 JSym2X= 0.
 Root      1 has converged.
 Root      2 has converged.
 Root      3 has converged.
 Root      4 has converged.
 Root      5 has converged.
 Root      6 has converged.
 Excitation Energies [eV] at current iteration:
 Root      1 :     2.613795229930122   Change is    0.000000000000094
 Root      2 :     3.811063934808819   Change is   -0.000000000000022
 Root      3 :     3.915750523375790   Change is   -0.000000000000042
 Root      4 :     4.196210715128606   Change is   -0.000000000000020
 Root      5 :     4.295159335988955   Change is   -0.000000000000020
 Root      6 :     5.566001207666858   Change is   -0.000000000014799
 Convergence achieved on expansion vectors.
 ***********************************************************************
 Excited states from <AA,BB:AA,BB> singles matrix:
 ***********************************************************************
 
 1PDM for each excited state written to RWF  633
 Ground to excited state transition densities written to RWF  633
 Ground to excited state transition electric dipole moments (Au):
       state          X           Y           Z        Dip. S.      Osc.
         1         1.8801     -0.0633      2.5362      9.9708      0.6385
         2        -1.8285     -0.0984      1.5170      5.6544      0.5279
         3        -0.8248      0.0049     -0.7346      1.2200      0.1170
         4        -0.6044      0.0031      0.4376      0.5568      0.0572
         5         0.1203     -0.3180      0.0085      0.1157      0.0122
         6         0.8366      0.1078     -0.6622      1.1500      0.1568
 Ground to excited state transition velocity dipole moments (Au):
       state          X           Y           Z        Dip. S.      Osc.
         1        -0.1842      0.0070     -0.2485      0.0957      0.6643
         2         0.2570      0.0137     -0.2140      0.1120      0.5332
         3         0.1217     -0.0010      0.1096      0.0268      0.1243
         4         0.0953      0.0005     -0.0699      0.0140      0.0604
         5        -0.0222      0.0543     -0.0044      0.0035      0.0146
         6        -0.1709     -0.0213      0.1362      0.0482      0.1571
 Ground to excited state transition magnetic dipole moments (Au):
       state          X           Y           Z
         1        -0.0220     -2.3467     -0.0373
         2         0.0372      0.0833     -0.0632
         3        -0.0245     -0.4571      0.0751
         4        -0.0996     -0.1359     -0.1857
         5        -0.4394     -0.5812     -0.5531
         6         0.0217      0.0459      0.1332
 Ground to excited state transition velocity quadrupole moments (Au):
       state          XX          YY          ZZ          XY          XZ          YZ
         1         0.7018      0.0026     -0.7368     -0.0620      0.2183     -0.0662
         2        -2.5911     -0.0664     -1.2500     -0.0285      2.7769      0.0854
         3        -1.1222     -0.0054      0.7562      0.0473      0.0190      0.0242
         4        -0.5168      0.0027     -0.4040     -0.0536      0.2999      0.0329
         5         0.3464     -0.0145     -0.2966     -0.4269      0.0923      0.3505
         6         1.0264      0.0712      0.1449      0.0454     -1.6702     -0.0948
 <0|del|b> * <b|rxdel|0> + <0|del|b> * <b|delr+rdel|0>
 Rotatory Strengths (R) in cgs (10**-40 erg-esu-cm/Gauss)
       state          XX          YY          ZZ    R(velocity)    E-M Angle
         1        24.9353     37.2057    -84.6980     -7.5190       90.24
         2       -43.5780     98.2687     67.5990     40.7633       49.30
         3        34.1395      7.4079    -13.4695      9.3593       85.69
         4        37.8807      6.5730    -28.8051      5.2162       83.39
         5       -72.1584      5.6798    -20.0932    -28.8572      111.05
         6       -21.0274     42.2706     25.2950     15.5127       64.52
 1/2[<0|r|b>*<b|rxdel|0> + (<0|rxdel|b>*<b|r|0>)*]
 Rotatory Strengths (R) in cgs (10**-40 erg-esu-cm/Gauss)
       state          XX          YY          ZZ     R(length)
         1        29.2245   -105.0158     66.9803     -2.9370
         2        48.0526      5.7965     67.8222     40.5571
         3       -14.2937      1.5974     39.0117      8.7718
         4       -42.5945      0.2932     57.4499      5.0495
         5        37.3991   -130.7181      3.3322    -29.9956
         6       -12.8181     -3.4988     62.3820     15.3551
  1/2[<0|del|b>*<b|r|0> + (<0|r|b>*<b|del|0>)*] (Au)
       state          X           Y           Z        Dip. S.   Osc.(frdel)
         1        -0.3463     -0.0004     -0.6302      0.9769      0.6512
         2        -0.4699     -0.0013     -0.3246      0.7959      0.5306
         3        -0.1004     -0.0000     -0.0805      0.1809      0.1206
         4        -0.0576      0.0000     -0.0306      0.0882      0.0588
         5        -0.0027     -0.0173     -0.0000      0.0200      0.0133
         6        -0.1430     -0.0023     -0.0902      0.2354      0.1569

 Excitation energies and oscillator strengths:
 
 Excited state symmetry could not be determined.
 Excited State   1:      Singlet-?Sym    2.6138 eV  474.35 nm  f=0.6385  <S**2>=0.000
      69 -> 70         0.70050
 This state for optimization and/or second-order correction.
 Total Energy, E(TD-HF/TD-DFT) =  -912.095338280    
 Copying the excited state density for this state as the 1-particle RhoCI density.
 
 Excited state symmetry could not be determined.
 Excited State   2:      Singlet-?Sym    3.8111 eV  325.33 nm  f=0.5279  <S**2>=0.000
      68 -> 70         0.69770
 
 Excited state symmetry could not be determined.
 Excited State   3:      Singlet-?Sym    3.9158 eV  316.63 nm  f=0.1170  <S**2>=0.000
      66 -> 70         0.35365
      67 -> 70         0.60480
 
 Excited state symmetry could not be determined.
 Excited State   4:      Singlet-?Sym    4.1962 eV  295.47 nm  f=0.0572  <S**2>=0.000
      65 -> 70         0.67958
      66 -> 70         0.15524
 
 Excited state symmetry could not be determined.
 Excited State   5:      Singlet-?Sym    4.2952 eV  288.66 nm  f=0.0122  <S**2>=0.000
      65 -> 70        -0.17665
      66 -> 70         0.57976
      67 -> 70        -0.33785
 
 Excited state symmetry could not be determined.
 Excited State   6:      Singlet-?Sym    5.5660 eV  222.75 nm  f=0.1568  <S**2>=0.000
      63 -> 70         0.11942
      64 -> 70         0.66824
 SavETr:  write IOETrn=   770 NScale= 10 NData=  16 NLR=1 NState=    6 LETran=     118.
 The selected state is a singlet.
 CISGrd: IGrad=2 NXY=2 DFT=T
 CISAX will form     1 AO SS matrices at one time.
 NMat=     1 NSing=     1 JSym2X= 0.
 GePol: Maximum number of non-zero 1st derivatives   =     214
 Leave Link  914 at Mon Jan 31 13:55:35 2022, MaxMem= 49660559360 cpu:            7703.1 elap:             278.1
 (Enter /lustre1/prg/gaussian/bin/G16_C01_Linda_AVX2/g16/linda-exe/l1002.exel)
 Minotr:  Closed shell wavefunction.
          Computing CIS/TDA/TD derivatives.
          Using Z-Vector for PSCF gradient.
          Skipping F1 and S1 gradient terms here.
          IDoAtm=1111111111111111111111111111111
 NEqPCM:  Using equilibrium solvation (IEInf=0, Eps=  32.6130, EpsInf=   1.7657)
          Frozen-core window.
          Direct CPHF calculation.
          Differentiating once with respect to electric field.
                with respect to dipole field.
          Differentiating once with respect to nuclear coordinates.
          Requested convergence is 1.0D-10 RMS, and 1.0D-09 maximum.
          NewPWx=F KeepS1=T KeepF1=T KeepIn=T MapXYZ=F SortEE=F KeepMc=T.
 Keep R1 ints in memory in canonical form, NReq=1620843042.
 FoFCou: FMM=F IPFlag=           0 FMFlag=           0 FMFlg1=           0
         NFxFlg=           0 DoJE=F BraDBF=F KetDBF=F FulRan=T
         wScrn=  0.000000 ICntrl=       600 IOpCl=  0 I1Cent=           0 NGrid=           0
         NMat0=    1 NMatS0=  56280 NMatT0=    0 NMatD0=    1 NMtDS0=    0 NMtDT0=    0
 Symmetry not used in FoFCou.
 Two-electron integral symmetry not used.
          MDV=   49660559360 using IRadAn=       5.
          Solving linear equations separately, MaxMat=       0.
          There are     1 degrees of freedom in the 1st order CPHF.  IDoFFX=0 NUNeed=     1.
 LinEq1:  Iter=  0 NonCon=     1 RMS=4.23D-03 Max=3.06D-01 NDo=     1
 AX will form     1 AO Fock derivatives at one time.
 LinEq1:  Iter=  1 NonCon=     1 RMS=1.73D-03 Max=1.50D-01 NDo=     1
 LinEq1:  Iter=  2 NonCon=     1 RMS=1.10D-03 Max=5.46D-02 NDo=     1
 LinEq1:  Iter=  3 NonCon=     1 RMS=2.50D-04 Max=6.83D-03 NDo=     1
 LinEq1:  Iter=  4 NonCon=     1 RMS=1.61D-04 Max=7.15D-03 NDo=     1
 LinEq1:  Iter=  5 NonCon=     1 RMS=7.40D-05 Max=2.90D-03 NDo=     1
 LinEq1:  Iter=  6 NonCon=     1 RMS=3.79D-05 Max=1.91D-03 NDo=     1
 LinEq1:  Iter=  7 NonCon=     1 RMS=2.01D-05 Max=8.28D-04 NDo=     1
 LinEq1:  Iter=  8 NonCon=     1 RMS=8.93D-06 Max=2.71D-04 NDo=     1
 LinEq1:  Iter=  9 NonCon=     1 RMS=3.31D-06 Max=9.41D-05 NDo=     1
 LinEq1:  Iter= 10 NonCon=     1 RMS=1.69D-06 Max=7.06D-05 NDo=     1
 LinEq1:  Iter= 11 NonCon=     1 RMS=6.32D-07 Max=4.83D-05 NDo=     1
 LinEq1:  Iter= 12 NonCon=     1 RMS=2.41D-07 Max=1.35D-05 NDo=     1
 LinEq1:  Iter= 13 NonCon=     1 RMS=1.46D-07 Max=5.94D-06 NDo=     1
 LinEq1:  Iter= 14 NonCon=     1 RMS=4.67D-08 Max=1.18D-06 NDo=     1
 LinEq1:  Iter= 15 NonCon=     1 RMS=1.80D-08 Max=4.44D-07 NDo=     1
 LinEq1:  Iter= 16 NonCon=     1 RMS=9.26D-09 Max=2.84D-07 NDo=     1
 LinEq1:  Iter= 17 NonCon=     1 RMS=3.76D-09 Max=8.34D-08 NDo=     1
 LinEq1:  Iter= 18 NonCon=     1 RMS=1.95D-09 Max=6.26D-08 NDo=     1
 LinEq1:  Iter= 19 NonCon=     1 RMS=5.62D-10 Max=1.42D-08 NDo=     1
 LinEq1:  Iter= 20 NonCon=     1 RMS=2.79D-10 Max=7.81D-09 NDo=     1
 LinEq1:  Iter= 21 NonCon=     1 RMS=1.26D-10 Max=3.83D-09 NDo=     1
 LinEq1:  Iter= 22 NonCon=     1 RMS=6.04D-11 Max=2.16D-09 NDo=     1
 LinEq1:  Iter= 23 NonCon=     1 RMS=2.95D-11 Max=1.08D-09 NDo=     1
 LinEq1:  Iter= 24 NonCon=     0 RMS=8.99D-12 Max=3.91D-10 NDo=     1
 Linear equations converged to 1.000D-10 1.000D-09 after    24 iterations.
 End of Minotr F.D. properties file   721 does not exist.
 End of Minotr F.D. properties file   722 does not exist.
 End of Minotr F.D. properties file   788 does not exist.
 Leave Link 1002 at Mon Jan 31 13:58:11 2022, MaxMem= 49660559360 cpu:            2051.2 elap:             151.7
 (Enter /lustre1/prg/gaussian/bin/G16_C01_Linda_AVX2/g16/l601.exe)
 Copying SCF densities to generalized density rwf, IOpCl= 0 IROHF=0.

 **********************************************************************

            Population analysis using the SCF Density.

 **********************************************************************

 Alpha  occ. eigenvalues --  -25.21749 -25.21327 -14.80363 -14.80363 -10.62763
 Alpha  occ. eigenvalues --  -10.60667 -10.60642 -10.60241 -10.60151 -10.58738
[...]
     2  N    0.347031   6.204708   0.483260  -0.025507  -0.054697   0.003759
     3  C   -0.027725   0.483260   4.783333   0.403877   0.467540  -0.040894
     4  H   -0.000243  -0.025507   0.403877   0.590050  -0.040117  -0.003521
     5  C   -0.000330  -0.054697   0.467540  -0.040117   4.770364   0.413699
     6  H    0.000174   0.003759  -0.040894  -0.003521   0.413699   0.630443
     7  C    0.004343  -0.080168  -0.058279   0.007290   0.525339  -0.040073
     8  H    0.000345   0.004118   0.009538  -0.000067  -0.043513  -0.005980
     9  C   -0.066062   0.430772  -0.136225   0.002766  -0.039158   0.009054
    10  C   -0.008558  -0.043761   0.008063  -0.000789   0.009102  -0.000202
    11  N    0.345858  -0.028046   0.000138   0.000181  -0.000088   0.000002
    12  C   -0.026473   0.000253  -0.000002  -0.000006   0.000000  -0.000000
    13  H    0.000237   0.000180  -0.000005   0.000000  -0.000000  -0.000000
    14  C   -0.000822  -0.000103  -0.000002  -0.000000  -0.000000   0.000000
    15  H    0.000161   0.000002  -0.000000  -0.000000   0.000000  -0.000000
    16  C    0.003769   0.000034   0.000026   0.000001   0.000000  -0.000000
    17  H    0.000312  -0.000008   0.000000  -0.000000   0.000000  -0.000000
    18  C   -0.066379  -0.011294  -0.000350   0.000092  -0.000497   0.000005
    19  F    0.450391  -0.027094   0.005544   0.002400   0.000390   0.000002
    20  F    0.474410  -0.027119  -0.002533  -0.000381  -0.000085   0.000000
    21  C    0.002358   0.003791  -0.000172   0.000004   0.000571  -0.000001
    22  C   -0.000116   0.000059  -0.000043   0.000001   0.000296   0.000003
    23  H   -0.000023  -0.000190  -0.000092  -0.000001   0.000383   0.000006
    24  C    0.000002  -0.000000   0.000001   0.000000  -0.000011  -0.000000
    25  H    0.000000   0.000000  -0.000000  -0.000000  -0.000000   0.000000
    26  C   -0.000000  -0.000000   0.000000   0.000000  -0.000000  -0.000000
    27  C    0.000001   0.000001  -0.000000   0.000000  -0.000000  -0.000000
    28  H    0.000000  -0.000000   0.000000  -0.000000  -0.000000  -0.000000
    29  C    0.000006  -0.000074   0.000002  -0.000000  -0.000004   0.000000
    30  H   -0.000021  -0.000002  -0.000000  -0.000000  -0.000002   0.000000
    31  H    0.000000   0.000000   0.000000   0.000000  -0.000000  -0.000000
               7          8          9         10         11         12
     1  B    0.004343   0.000345  -0.066062  -0.008558   0.345858  -0.026473
     2  N   -0.080168   0.004118   0.430772  -0.043761  -0.028046   0.000253
     3  C   -0.058279   0.009538  -0.136225   0.008063   0.000138  -0.000002
     4  H    0.007290  -0.000067   0.002766  -0.000789   0.000181  -0.000006
     5  C    0.525339  -0.043513  -0.039158   0.009102  -0.000088   0.000000
     6  H   -0.040073  -0.005980   0.009054  -0.000202   0.000002  -0.000000
     7  C    4.920135   0.412585   0.452707  -0.105874   0.000074   0.000024
     8  H    0.412585   0.637402  -0.031630  -0.013827  -0.000007   0.000000
     9  C    0.452707  -0.031630   5.029668   0.310270  -0.011266  -0.000350
    10  C   -0.105874  -0.013827   0.310270   5.402107  -0.043951   0.008283
    11  N    0.000074  -0.000007  -0.011266  -0.043951   6.211942   0.482412
    12  C    0.000024   0.000000  -0.000350   0.008283   0.482412   4.782435
    13  H    0.000001  -0.000000   0.000099  -0.000826  -0.025409   0.403514
    14  C    0.000002  -0.000000  -0.000530   0.008666  -0.054512   0.466109
    15  H   -0.000000  -0.000000   0.000005  -0.000202   0.003778  -0.041093
    16  C   -0.000087   0.000003   0.011452  -0.105816  -0.081734  -0.057704
    17  H   -0.000000   0.000001   0.000068  -0.012122   0.004020   0.009497
    18  C    0.010532   0.000003  -0.003741   0.312423   0.431084  -0.135729
    19  F   -0.000120   0.000001  -0.003551   0.001370  -0.026252   0.005435
    20  F    0.000040   0.000001  -0.001262   0.000214  -0.028074  -0.002596
    21  C   -0.011246   0.003425  -0.076728   0.389874   0.003626  -0.000163
    22  C   -0.001781   0.003628  -0.018307  -0.075311  -0.000095   0.000001
    23  H    0.003987  -0.000708  -0.001452  -0.012939  -0.000003   0.000000
    24  C   -0.000465   0.000910   0.000643   0.007206   0.000000  -0.000000
    25  H    0.000012  -0.000002   0.000009  -0.000447  -0.000000   0.000000
    26  C   -0.000010  -0.000007   0.000001   0.001293  -0.000000   0.000000
    27  C   -0.000013  -0.000061  -0.000259   0.006989   0.000001   0.000000
    28  H   -0.000000   0.000000   0.000003  -0.000434   0.000000  -0.000000
    29  C    0.000778  -0.000103   0.005302  -0.076745   0.000129  -0.000049
    30  H    0.000031   0.000003   0.000457  -0.013210  -0.000167  -0.000111
    31  H   -0.000000   0.000001   0.000000   0.000005   0.000000   0.000000
              13         14         15         16         17         18
     1  B    0.000237  -0.000822   0.000161   0.003769   0.000312  -0.066379
     2  N    0.000180  -0.000103   0.000002   0.000034  -0.000008  -0.011294
     3  C   -0.000005  -0.000002  -0.000000   0.000026   0.000000  -0.000350
     4  H    0.000000  -0.000000  -0.000000   0.000001  -0.000000   0.000092
     5  C   -0.000000  -0.000000   0.000000   0.000000   0.000000  -0.000497
     6  H   -0.000000   0.000000  -0.000000  -0.000000  -0.000000   0.000005
     7  C    0.000001   0.000002  -0.000000  -0.000087  -0.000000   0.010532
     8  H   -0.000000  -0.000000  -0.000000   0.000003   0.000001   0.000003
     9  C    0.000099  -0.000530   0.000005   0.011452   0.000068  -0.003741
    10  C   -0.000826   0.008666  -0.000202  -0.105816  -0.012122   0.312423
    11  N   -0.025409  -0.054512   0.003778  -0.081734   0.004020   0.431084
    12  C    0.403514   0.466109  -0.041093  -0.057704   0.009497  -0.135729
    13  H    0.589832  -0.040087  -0.003513   0.007418  -0.000066   0.002649
    14  C   -0.040087   4.771925   0.413506   0.523416  -0.042782  -0.037822
    15  H   -0.003513   0.413506   0.630438  -0.039582  -0.006109   0.009066
    16  C    0.007418   0.523416  -0.039582   4.932001   0.412026   0.448824
    17  H   -0.000066  -0.042782  -0.006109   0.412026   0.635788  -0.032470
    18  C    0.002649  -0.037822   0.009066   0.448824  -0.032470   5.022686
    19  F    0.002052   0.000391   0.000002  -0.000118   0.000000  -0.003514
    20  F   -0.000340  -0.000150  -0.000000   0.000045   0.000001  -0.001313
    21  C    0.000005   0.000686  -0.000001  -0.012291   0.001898  -0.073346
    22  C   -0.000000   0.000009   0.000000   0.000553  -0.000170   0.005957
    23  H   -0.000000  -0.000001   0.000000  -0.000010   0.000000   0.000957
    24  C   -0.000000  -0.000000  -0.000000  -0.000004  -0.000050  -0.000316
    25  H   -0.000000   0.000000  -0.000000  -0.000000   0.000000   0.000003
    26  C    0.000000   0.000000  -0.000000  -0.000008  -0.000015   0.000001
    27  C    0.000000  -0.000014  -0.000000  -0.000260   0.001236   0.000600
    28  H   -0.000000  -0.000000   0.000000   0.000016  -0.000004   0.000013
    29  C    0.000000   0.000283   0.000006  -0.001146   0.004805  -0.016382
    30  H   -0.000001   0.000641   0.000010   0.004787  -0.001011  -0.002077
    31  H    0.000000  -0.000000  -0.000000  -0.000000   0.000000   0.000000
              19         20         21         22         23         24
     1  B    0.450391   0.474410   0.002358  -0.000116  -0.000023   0.000002
     2  N   -0.027094  -0.027119   0.003791   0.000059  -0.000190  -0.000000
     3  C    0.005544  -0.002533  -0.000172  -0.000043  -0.000092   0.000001
     4  H    0.002400  -0.000381   0.000004   0.000001  -0.000001   0.000000
     5  C    0.000390  -0.000085   0.000571   0.000296   0.000383  -0.000011
     6  H    0.000002   0.000000  -0.000001   0.000003   0.000006  -0.000000
     7  C   -0.000120   0.000040  -0.011246  -0.001781   0.003987  -0.000465
     8  H    0.000001   0.000001   0.003425   0.003628  -0.000708   0.000910
     9  C   -0.003551  -0.001262  -0.076728  -0.018307  -0.001452   0.000643
    10  C    0.001370   0.000214   0.389874  -0.075311  -0.012939   0.007206
    11  N   -0.026252  -0.028074   0.003626  -0.000095  -0.000003   0.000000
    12  C    0.005435  -0.002596  -0.000163   0.000001   0.000000  -0.000000
    13  H    0.002052  -0.000340   0.000005  -0.000000  -0.000000  -0.000000
    14  C    0.000391  -0.000150   0.000686   0.000009  -0.000001  -0.000000
    15  H    0.000002  -0.000000  -0.000001   0.000000   0.000000  -0.000000
    16  C   -0.000118   0.000045  -0.012291   0.000553  -0.000010  -0.000004
    17  H    0.000000   0.000001   0.001898  -0.000170   0.000000  -0.000050
    18  C   -0.003514  -0.001313  -0.073346   0.005957   0.000957  -0.000316
    19  F    8.854364  -0.020124   0.000003  -0.000000  -0.000000  -0.000000
    20  F   -0.020124   8.846016   0.000004   0.000000   0.000000   0.000000
    21  C    0.000003   0.000004   5.026193   0.492793  -0.050861  -0.008401
    22  C   -0.000000   0.000000   0.492793   4.804399   0.404279   0.521363
    23  H   -0.000000   0.000000  -0.050861   0.404279   0.671965  -0.035053
    24  C   -0.000000   0.000000  -0.008401   0.521363  -0.035053   4.714281
    25  H    0.000000  -0.000000   0.008423  -0.036296  -0.012446   0.398019
    26  C   -0.000000   0.000000  -0.063318  -0.020546   0.009041   0.510187
    27  C    0.000000  -0.000000  -0.008818  -0.065264  -0.000678  -0.010272
    28  H    0.000000   0.000000   0.008329   0.000097   0.000053   0.008319
    29  C    0.000000  -0.000000   0.494258  -0.024417   0.009636  -0.065556
    30  H    0.000000  -0.000000  -0.049612   0.009279  -0.000173  -0.000629
    31  H   -0.000000   0.000000  -0.000503   0.009328  -0.000191  -0.043516
              25         26         27         28         29         30
     1  B    0.000000  -0.000000   0.000001   0.000000   0.000006  -0.000021
     2  N    0.000000  -0.000000   0.000001  -0.000000  -0.000074  -0.000002
     3  C   -0.000000   0.000000  -0.000000   0.000000   0.000002  -0.000000
     4  H   -0.000000   0.000000   0.000000  -0.000000  -0.000000  -0.000000
     5  C   -0.000000  -0.000000  -0.000000  -0.000000  -0.000004  -0.000002
     6  H    0.000000  -0.000000  -0.000000  -0.000000   0.000000   0.000000
     7  C    0.000012  -0.000010  -0.000013  -0.000000   0.000778   0.000031
     8  H   -0.000002  -0.000007  -0.000061   0.000000  -0.000103   0.000003
     9  C    0.000009   0.000001  -0.000259   0.000003   0.005302   0.000457
    10  C   -0.000447   0.001293   0.006989  -0.000434  -0.076745  -0.013210
    11  N   -0.000000  -0.000000   0.000001   0.000000   0.000129  -0.000167
    12  C    0.000000   0.000000   0.000000  -0.000000  -0.000049  -0.000111
    13  H   -0.000000   0.000000   0.000000  -0.000000   0.000000  -0.000001
    14  C    0.000000   0.000000  -0.000014  -0.000000   0.000283   0.000641
    15  H   -0.000000  -0.000000  -0.000000   0.000000   0.000006   0.000010
    16  C   -0.000000  -0.000008  -0.000260   0.000016  -0.001146   0.004787
    17  H    0.000000  -0.000015   0.001236  -0.000004   0.004805  -0.001011
    18  C    0.000003   0.000001   0.000600   0.000013  -0.016382  -0.002077
    19  F    0.000000  -0.000000   0.000000   0.000000   0.000000   0.000000
    20  F   -0.000000   0.000000  -0.000000   0.000000  -0.000000  -0.000000
    21  C    0.008423  -0.063318  -0.008818   0.008329   0.494258  -0.049612
    22  C   -0.036296  -0.020546  -0.065264   0.000097  -0.024417   0.009279
    23  H   -0.012446   0.009041  -0.000678   0.000053   0.009636  -0.000173
    24  C    0.398019   0.510187  -0.010272   0.008319  -0.065556  -0.000629
    25  H    0.667867  -0.045077   0.008346  -0.000211   0.000058   0.000053
    26  C   -0.045077   4.759295   0.512168  -0.044814  -0.021126   0.008887
    27  C    0.008346   0.512168   4.711980   0.397726   0.521122  -0.034130
    28  H   -0.000211  -0.044814   0.397726   0.667673  -0.036069  -0.012387
    29  C    0.000058  -0.021126   0.521122  -0.036069   4.808534   0.402461
    30  H    0.000053   0.008887  -0.034130  -0.012387   0.402461   0.670501
    31  H   -0.012261   0.402622  -0.043380  -0.012268   0.009382  -0.000192
              31
     1  B    0.000000
     2  N    0.000000
     3  C    0.000000
     4  H    0.000000
     5  C   -0.000000
     6  H   -0.000000
     7  C   -0.000000
     8  H    0.000001
     9  C    0.000000
    10  C    0.000005
    11  N    0.000000
    12  C    0.000000
    13  H    0.000000
    14  C   -0.000000
    15  H   -0.000000
    16  C   -0.000000
    17  H    0.000000
    18  C    0.000000
    19  F   -0.000000
    20  F    0.000000
    21  C   -0.000503
    22  C    0.009328
    23  H   -0.000191
    24  C   -0.043516
    25  H   -0.012261
    26  C    0.402622
    27  C   -0.043380
    28  H   -0.012268
    29  C    0.009382
    30  H   -0.000192
    31  H    0.668422
 Mulliken charges:
               1
     1  B    0.169059
     2  N   -0.179906
     3  C    0.105000
     4  H    0.063971
     5  C   -0.009183
     6  H    0.033525
     7  C   -0.039763
     8  H    0.023941
     9  C    0.137244
    10  C    0.049148
    11  N   -0.183642
    12  C    0.106314
    13  H    0.064259
    14  C   -0.008806
    15  H    0.033527
    16  C   -0.045608
    17  H    0.025154
    18  C    0.140333
    19  F   -0.241574
    20  F   -0.236755
    21  C   -0.080781
    22  C   -0.009698
    23  H    0.014511
    24  C    0.003343
    25  H    0.023951
    26  C   -0.008573
    27  C    0.002980
    28  H    0.023959
    29  C   -0.015091
    30  H    0.016611
    31  H    0.022550
 Sum of Mulliken charges =  -0.00000
 Mulliken charges with hydrogens summed into heavy atoms:
               1
     1  B    0.169059
     2  N   -0.179906
     3  C    0.168971
     5  C    0.024342
     7  C   -0.015821
     9  C    0.137244
    10  C    0.049148
    11  N   -0.183642
    12  C    0.170573
    14  C    0.024721
    16  C   -0.020455
    18  C    0.140333
    19  F   -0.241574
    20  F   -0.236755
    21  C   -0.080781
    22  C    0.004813
    24  C    0.027294
    26  C    0.013978
    27  C    0.026939
    29  C    0.001520
 Electronic spatial extent (au):  <R**2>=           8488.5377
 Charge=             -0.0000 electrons
 Dipole moment (field-independent basis, Debye):
    X=             -4.1185    Y=              1.3480    Z=              3.2078  Tot=              5.3916
 Quadrupole moment (field-independent basis, Debye-Ang):
   XX=            -87.2464   YY=           -118.7478   ZZ=            -87.5705
   XY=             -3.1581   XZ=             -1.6765   YZ=             -3.5474
 Traceless Quadrupole moment (field-independent basis, Debye-Ang):
   XX=             10.6085   YY=            -20.8929   ZZ=             10.2844
   XY=             -3.1581   XZ=             -1.6765   YZ=             -3.5474
 Octapole moment (field-independent basis, Debye-Ang**2):
  XXX=            605.5516  YYY=             13.9069  ZZZ=           -485.3813  XYY=            242.8186
  XXY=             31.7575  XXZ=           -117.5422  XZZ=            182.3664  YZZ=            -16.7827
  YYZ=           -184.9728  XYZ=              9.9599
 Hexadecapole moment (field-independent basis, Debye-Ang**3):
 XXXX=          -5771.9245 YYYY=           -369.0990 ZZZZ=          -4314.4719 XXXY=           -170.9452
 XXXZ=           1282.4155 YYYX=             33.9215 YYYZ=             56.0753 ZZZX=           1480.6284
 ZZZY=            -68.6260 XXYY=          -1163.3215 XXZZ=          -1443.4199 YYZZ=           -869.3304
 XXYZ=             28.9632 YYXZ=            546.7052 ZZXY=            100.7493
 N-N= 1.465725450576D+03 E-N=-5.061192366329D+03  KE= 9.065632787636D+02
 No NMR shielding tensors so no spin-rotation constants.
 Leave Link  601 at Mon Jan 31 15:12:44 2022, MaxMem= 49660559360 cpu:              10.3 elap:               0.4
 (Enter /lustre1/prg/gaussian/bin/G16_C01_Linda_AVX2/g16/l9999.exe)
 Electronic transition elements 
                 1             2             3             4             5 
      1  -0.912095D+03 -0.912051D+03 -0.912048D+03 -0.912037D+03 -0.912034D+03
      2   0.191288D+01 -0.179408D+01 -0.735749D+00 -0.656336D+00  0.104023D+00
      3  -0.503207D-01 -0.782297D-01  0.819635D-02 -0.175772D-02 -0.309717D+00
      4   0.256073D+01  0.144331D+01 -0.753895D+00  0.479471D+00 -0.147750D-01
      5  -0.188362D+00  0.252991D+00  0.109202D+00  0.103750D+00 -0.195671D-01
      6   0.585430D-02  0.109188D-01 -0.156976D-02  0.104361D-02  0.529398D-01
      7  -0.252123D+00 -0.204092D+00  0.112760D+00 -0.765646D-01 -0.788515D-03
      8  -0.166056D-01  0.376854D-01 -0.868761D-02 -0.773795D-01 -0.432175D+00
      9  -0.235365D+01  0.629773D-01 -0.509073D+00 -0.106071D+00 -0.547466D+00
     10  -0.333670D-01 -0.534104D-01  0.681765D-01 -0.155681D+00 -0.547474D+00
     11   0.727284D+00 -0.254833D+01 -0.102342D+01 -0.606862D+00  0.327642D+00
     12   0.159429D-02 -0.688936D-01 -0.307491D-02  0.125869D-03 -0.109947D-01
     13  -0.753630D+00 -0.118387D+01  0.799133D+00 -0.447372D+00 -0.254355D+00
     14  -0.509547D-01 -0.124904D-01  0.435276D-01 -0.496834D-01 -0.420339D+00
     15   0.218582D+00  0.271597D+01 -0.781899D-01  0.368242D+00  0.660663D-01
     16  -0.538717D-01  0.793959D-01  0.109697D-01  0.302742D-01  0.340635D+00
                 6 
      1  -0.911988D+03
      2   0.884948D+00
      3   0.876830D-01
      4  -0.686672D+00
      5  -0.180601D+00
      6  -0.173044D-01
      7   0.140790D+00
      8   0.103536D-01
      9   0.293737D-01
     10   0.113084D+00
     11   0.110870D+01
     12   0.762229D-01
     13   0.166695D+00
     14   0.266346D-01
     15  -0.175895D+01
     16  -0.878304D-01
 Unable to Open any file for archive entry.
 1\1\VILNIUS-FIZIKA345\FOpt\RM062X TD-FC\CC-pVDZ\C15H11B1F2N2\TOLISTE\3
 1-Jan-2022\0\\#p m062x cc-pvdz scrf=(cpcm,solvent=Methanol) td=(nstate
 =6,root=1) opt=tight nosymm density=all int=ultrafine fchk\\BDP-phenyl
 , optimized S1 in toluene\\0,1\B,-0.0155077134,-0.2513289063,0.0108525
 944\N,0.0013329809,-0.0676335507,1.5432988534\C,1.0971382396,0.0368890
 433,2.3051803204\H,2.0890585487,0.0364226738,1.8578002367\C,0.72532635
 39,0.144720948,3.6724921552\H,1.4163493584,0.2481805903,4.5042625721\C
 ,-0.6600026324,0.1085612662,3.7223552949\H,-1.2968911963,0.1978285155,
 4.5969651226\C,-1.1237422147,-0.0265291694,2.3783374596\C,-2.445470946
 8,-0.0327224632,1.8510989329\N,-1.4729925902,0.0444521183,-0.409175375
 2\C,-1.9005280081,0.1550791322,-1.6729264676\H,-1.1950815925,0.1631901
 985,-2.5014565731\C,-3.3191512882,0.2248700754,-1.6984424448\H,-3.9276
 927733,0.3133813003,-2.5939278289\C,-3.7553816964,0.1484837741,-0.3842
 506546\H,-4.7798544524,0.1566887088,-0.0267540119\C,-2.5919249021,0.04
 62757422,0.4385228416\F,0.8656978052,0.6400127224,-0.6005943378\F,0.33
 20584701,-1.563774696,-0.3331062305\C,-3.6086460498,-0.0470276696,2.75
 26228265\C,-3.6732907349,-0.9710558827,3.8103765294\H,-2.8660248419,-1
 .6938570482,3.9409464788\C,-4.7677250031,-0.9886253423,4.6709511122\H,
 -4.8053344095,-1.7189679021,5.4798863518\C,-5.8153865284,-0.0829974882
 ,4.4947524879\C,-5.7596358662,0.8425942399,3.4518276132\H,-6.567592830
 1,1.561997917,3.3145496514\C,-4.6675598475,0.8623926793,2.5876176196\H
 ,-4.6172434817,1.6099443197,1.7947068938\H,-6.671704157,-0.0974478466,
 5.1696509759\\Version=ES64L-G16RevC.01\HF=-912.1920125\RMSD=9.207e-09\
 RMSF=1.953e-06\Dipole=-1.6203525,0.5303362,1.262042\Quadrupole=7.88717
 34,-15.5333672,7.6461938,-2.3479856,-1.2464679,-2.6374281\PG=C01 [X(C1
 5H11B1F2N2)]\\@
 The archive entry for this job was punched.


 NATURE WILL TELL YOU A DIRECT LIE IF SHE CAN.

                                -- CHARLES DARWIN
 Job cpu time:       0 days  0 hours  5 minutes 11.3 seconds.
 Elapsed time:       0 days  1 hours 20 minutes 55.3 seconds.
 File lengths (MBytes):  RWF=    779 Int=      0 D2E=      0 Chk=     37 Scr=      1
 Normal termination of Gaussian 16 at Mon Jan 31 15:12:45 2022.
