 Entering Gaussian System, Link 0=/lustre1/prg/gaussian/bin/G16_C01_Linda9.2_SSE4/g16/g16
 Initial command:
 /lustre1/prg/gaussian/bin/G16_C01_Linda9.2_SSE4/g16/l1.exe "/lustre1/prg/webmo/data/webmo20/toliste/4423/scratch/Gau-48619.inp" -scrdir="/lustre1/prg/webmo/data/webmo20/toliste/4423/scratch/"
 Default is to use a total of  12 processors:
                               12 via shared-memory
                                1 via Linda
 Entering Link 1 = /lustre1/prg/gaussian/bin/G16_C01_Linda9.2_SSE4/g16/l1.exe PID=     48620.
  
 Copyright (c) 1988-2019, Gaussian, Inc.  All Rights Reserved.
  
 This is part of the Gaussian(R) 16 program.  It is based on
 the Gaussian(R) 09 system (copyright 2009, Gaussian, Inc.),
 the Gaussian(R) 03 system (copyright 2003, Gaussian, Inc.),
 the Gaussian(R) 98 system (copyright 1998, Gaussian, Inc.),
 the Gaussian(R) 94 system (copyright 1995, Gaussian, Inc.),
 the Gaussian 92(TM) system (copyright 1992, Gaussian, Inc.),
 the Gaussian 90(TM) system (copyright 1990, Gaussian, Inc.),
 the Gaussian 88(TM) system (copyright 1988, Gaussian, Inc.),
 the Gaussian 86(TM) system (copyright 1986, Carnegie Mellon
 University), and the Gaussian 82(TM) system (copyright 1983,
 Carnegie Mellon University). Gaussian is a federally registered
 trademark of Gaussian, Inc.
  
 This software contains proprietary and confidential information,
 including trade secrets, belonging to Gaussian, Inc.
  
 This software is provided under written license and may be
 used, copied, transmitted, or stored only in accord with that
 written license.
  
 The following legend is applicable only to US Government
 contracts under FAR:
  
                    RESTRICTED RIGHTS LEGEND
  
 Use, reproduction and disclosure by the US Government is
 subject to restrictions as set forth in subparagraphs (a)
 and (c) of the Commercial Computer Software - Restricted
 Rights clause in FAR 52.227-19.
  
 Gaussian, Inc.
 340 Quinnipiac St., Bldg. 40, Wallingford CT 06492
  
  
 ---------------------------------------------------------------
 Warning -- This program may not be used in any manner that
 competes with the business of Gaussian, Inc. or will provide
 assistance to any competitor of Gaussian, Inc.  The licensee
 of this program is prohibited from giving any competitor of
 Gaussian, Inc. access to this program.  By using this program,
 the user acknowledges that Gaussian, Inc. is engaged in the
 business of creating and licensing software in the field of
 computational chemistry and represents and warrants to the
 licensee that it is not a competitor of Gaussian, Inc. and that
 it will not use this program in any manner prohibited above.
 ---------------------------------------------------------------
  

 Cite this work as:
 Gaussian 16, Revision C.01,
 M. J. Frisch, G. W. Trucks, H. B. Schlegel, G. E. Scuseria, 
 M. A. Robb, J. R. Cheeseman, G. Scalmani, V. Barone, 
 G. A. Petersson, H. Nakatsuji, X. Li, M. Caricato, A. V. Marenich, 
 J. Bloino, B. G. Janesko, R. Gomperts, B. Mennucci, H. P. Hratchian, 
 J. V. Ortiz, A. F. Izmaylov, J. L. Sonnenberg, D. Williams-Young, 
 F. Ding, F. Lipparini, F. Egidi, J. Goings, B. Peng, A. Petrone, 
 T. Henderson, D. Ranasinghe, V. G. Zakrzewski, J. Gao, N. Rega, 
 G. Zheng, W. Liang, M. Hada, M. Ehara, K. Toyota, R. Fukuda, 
 J. Hasegawa, M. Ishida, T. Nakajima, Y. Honda, O. Kitao, H. Nakai, 
 T. Vreven, K. Throssell, J. A. Montgomery, Jr., J. E. Peralta, 
 F. Ogliaro, M. J. Bearpark, J. J. Heyd, E. N. Brothers, K. N. Kudin, 
 V. N. Staroverov, T. A. Keith, R. Kobayashi, J. Normand, 
 K. Raghavachari, A. P. Rendell, J. C. Burant, S. S. Iyengar, 
 J. Tomasi, M. Cossi, J. M. Millam, M. Klene, C. Adamo, R. Cammi, 
 J. W. Ochterski, R. L. Martin, K. Morokuma, O. Farkas, 
 J. B. Foresman, and D. J. Fox, Gaussian, Inc., Wallingford CT, 2019.
 
 ******************************************
 Gaussian 16:  ES64L-G16RevC.01  3-Jul-2019
                 1-Feb-2022 
 ******************************************
 %LindaWorkers=fizika11,fizika12,fizika18,fizika19,fizika20,fizika21,fizika30,fiz
 ika32
 %chk=bodipy.chk
 SetLPE:  input flags=" -opt "Tsnet.Node.lindarsharg: ssh" "
 SetLPE:    new flags=" -opt "Tsnet.Node.lindarsharg: ssh" -opt 'Tsnet.Node.lindarsharg: ssh'  -nodelist 'fizika11.fizika.bullx fizika12.fizika.bullx fizika18.fizika.bullx fizika19.fizika.bullx fizika20.fizika.bullx fizika21.fizika.bullx fizika30.fizika.bullx fizika32.fizika.bullx' -env GAUSS_MDEF=11408506880 -env GAUSS_EXEDIR="/lustre1/prg/gaussian/bin/G16_C01_Linda9.2_SSE4/g16/bsd:/lustre1/prg/gaussian/bin/G16_C01_Linda9.2_SSE4/g16/private:/lustre1/prg/gaussian/bin/G16_C01_Linda9.2_SSE4/g16""
 Will use up to    8 processors via Linda.
 ----------------------------------------------------------------------
 #p m062x cc-pvdz scrf=(cpcm,solvent=Acetone) td=(nstate=6,root=1) opt=
 tight nosymm density=all int=ultrafine fchk
 ----------------------------------------------------------------------
 1/7=10,18=20,19=15,26=6,38=1/1,3;
 2/9=110,12=2,15=1,17=6,18=5,40=1/2;
 3/5=16,11=9,25=1,30=1,70=2101,71=1,72=19,74=-55,75=-5/1,2,3,8;
 4//1;
 5/5=2,38=5,53=19/2;
 8/6=1,10=1,107=1,108=6/1;
 9/8=1,15=2,30=10,41=6,42=1,70=2/14;
 10/5=4,28=1,31=1/2;
 6/7=2,8=2,9=2,10=2,22=-2/1;
 7/12=6,13=5,14=1,30=1/1,2,3,16;
 1/7=10,18=20,19=15,26=6/3(2);
 2/9=110,15=1/2;
 99//99;
 2/9=110,15=1/2;
 3/5=16,11=9,25=1,30=1,70=2105,71=1,72=19,74=-55,75=-5/1,2,3,8;
 4/5=5,16=3,69=1/1;
 5/5=2,38=5,53=19/2;
 8/6=1,10=1,107=1,108=6/1;
 9/8=1,15=2,30=10,41=6,42=1,49=4,70=2/14;
 10/5=4,28=1,31=1/2;
 7/12=6,13=5,14=1,30=1/1,2,3,16;
 1/7=10,18=20,19=15,26=6/3(-8);
 2/9=110,15=1/2;
 6/7=2,8=2,9=2,10=2,22=-2/1;
 99/9=10/99;
 Leave Link    1 at Tue Feb  1 12:34:48 2022, MaxMem=           0 cpu:               1.9 elap:               0.2
 (Enter /lustre1/prg/gaussian/bin/G16_C01_Linda9.2_SSE4/g16/l101.exe)
 -----------------------------------
 BDP-phenyl, optimized R1 in toluene
 -----------------------------------
 Symbolic Z-matrix:
 Charge =  0 Multiplicity = 1
 B                    -0.22646   1.02681   0.36646 
 N                    -0.06346   0.11716   1.6183 
 C                     1.04881  -0.4059    2.13522 
 H                     2.02119  -0.16772   1.71082 
 C                     0.71474  -1.24518   3.22852 
 H                     1.42267  -1.78941   3.84689 
 C                    -0.67094  -1.22985   3.34561 
 H                    -1.28192  -1.79526   4.04248 
 C                    -1.16328  -0.35008   2.3457 
 C                    -2.50187  -0.00928   1.91758 
 N                    -1.51319   0.44742  -0.28853 
 C                    -1.77437   0.23585  -1.57892 
 H                    -1.06149   0.53442  -2.34383 
 C                    -3.03758  -0.39527  -1.70995 
 H                    -3.51184  -0.6718   -2.64717 
 C                    -3.53461  -0.58315  -0.42471 
 H                    -4.45639  -1.08008  -0.13831 
 C                    -2.58533  -0.02833   0.47368 
 F                    -0.42456   2.34713   0.74603 
 F                     0.85674   0.8763   -0.48305 
 C                    -3.6264    0.15309   2.79958 
 C                    -3.46924   0.10032   4.20663 
 H                    -2.47734  -0.03957   4.63367 
 C                    -4.55662   0.26174   5.05338 
 H                    -4.40589   0.21851   6.13251 
 C                    -5.83355   0.49213   4.53442 
 C                    -6.00218   0.58814   3.15055 
 H                    -6.98729   0.80149   2.73438 
 C                    -4.92145   0.42812   2.29504 
 H                    -5.06883   0.54548   1.22249 
 H                    -6.6855    0.61676   5.20297 
 
 ITRead=  0  0  0  0  0  0  0  0  0  0  0  0  0  0  0  0  0  0  0  0
 ITRead=  0  0  0  0  0  0  0  0  0  0  0
 MicOpt= -1 -1 -1 -1 -1 -1 -1 -1 -1 -1 -1 -1 -1 -1 -1 -1 -1 -1 -1 -1
 MicOpt= -1 -1 -1 -1 -1 -1 -1 -1 -1 -1 -1
 NAtoms=     31 NQM=       31 NQMF=       0 NMMI=      0 NMMIF=      0
                NMic=       0 NMicF=      0.
                    Isotopes and Nuclear Properties:
 (Nuclear quadrupole moments (NQMom) in fm**2, nuclear magnetic moments (NMagM)
  in nuclear magnetons)

  Atom         1           2           3           4           5           6           7           8           9          10
 IAtWgt=          11          14          12           1          12           1          12           1          12          12
 AtmWgt=  11.0093053  14.0030740  12.0000000   1.0078250  12.0000000   1.0078250  12.0000000   1.0078250  12.0000000  12.0000000
 NucSpn=           3           2           0           1           0           1           0           1           0           0
 AtZEff=  -0.0000000  -0.0000000  -0.0000000  -0.0000000  -0.0000000  -0.0000000  -0.0000000  -0.0000000  -0.0000000  -0.0000000
 NQMom=    4.0590000   2.0440000   0.0000000   0.0000000   0.0000000   0.0000000   0.0000000   0.0000000   0.0000000   0.0000000
 NMagM=    2.6886370   0.4037610   0.0000000   2.7928460   0.0000000   2.7928460   0.0000000   2.7928460   0.0000000   0.0000000
 AtZNuc=   5.0000000   7.0000000   6.0000000   1.0000000   6.0000000   1.0000000   6.0000000   1.0000000   6.0000000   6.0000000

  Atom        11          12          13          14          15          16          17          18          19          20
 IAtWgt=          14          12           1          12           1          12           1          12          19          19
 AtmWgt=  14.0030740  12.0000000   1.0078250  12.0000000   1.0078250  12.0000000   1.0078250  12.0000000  18.9984033  18.9984033
 NucSpn=           2           0           1           0           1           0           1           0           1           1
 AtZEff=  -0.0000000  -0.0000000  -0.0000000  -0.0000000  -0.0000000  -0.0000000  -0.0000000  -0.0000000  -0.0000000  -0.0000000
 NQMom=    2.0440000   0.0000000   0.0000000   0.0000000   0.0000000   0.0000000   0.0000000   0.0000000   0.0000000   0.0000000
 NMagM=    0.4037610   0.0000000   2.7928460   0.0000000   2.7928460   0.0000000   2.7928460   0.0000000   2.6288670   2.6288670
 AtZNuc=   7.0000000   6.0000000   1.0000000   6.0000000   1.0000000   6.0000000   1.0000000   6.0000000   9.0000000   9.0000000

  Atom        21          22          23          24          25          26          27          28          29          30
 IAtWgt=          12          12           1          12           1          12          12           1          12           1
 AtmWgt=  12.0000000  12.0000000   1.0078250  12.0000000   1.0078250  12.0000000  12.0000000   1.0078250  12.0000000   1.0078250
 NucSpn=           0           0           1           0           1           0           0           1           0           1
 AtZEff=  -0.0000000  -0.0000000  -0.0000000  -0.0000000  -0.0000000  -0.0000000  -0.0000000  -0.0000000  -0.0000000  -0.0000000
 NQMom=    0.0000000   0.0000000   0.0000000   0.0000000   0.0000000   0.0000000   0.0000000   0.0000000   0.0000000   0.0000000
 NMagM=    0.0000000   0.0000000   2.7928460   0.0000000   2.7928460   0.0000000   0.0000000   2.7928460   0.0000000   2.7928460
 AtZNuc=   6.0000000   6.0000000   1.0000000   6.0000000   1.0000000   6.0000000   6.0000000   1.0000000   6.0000000   1.0000000

  Atom        31
 IAtWgt=           1
 AtmWgt=   1.0078250
 NucSpn=           1
 AtZEff=  -0.0000000
 NQMom=    0.0000000
 NMagM=    2.7928460
 AtZNuc=   1.0000000
 Leave Link  101 at Tue Feb  1 12:34:49 2022, MaxMem= 11408506880 cpu:               6.5 elap:               0.5
 (Enter /lustre1/prg/gaussian/bin/G16_C01_Linda9.2_SSE4/g16/l103.exe)

 GradGradGradGradGradGradGradGradGradGradGradGradGradGradGradGradGradGrad
 Berny optimization.
 Initialization pass.
                           ----------------------------
                           !    Initial Parameters    !
                           ! (Angstroms and Degrees)  !
 --------------------------                            --------------------------
 ! Name  Definition              Value          Derivative Info.                !
 --------------------------------------------------------------------------------
 ! R1    R(1,2)                  1.556          estimate D2E/DX2                !
 ! R2    R(1,11)                 1.5558         estimate D2E/DX2                !
 ! R3    R(1,19)                 1.388          estimate D2E/DX2                !
 ! R4    R(1,20)                 1.3848         estimate D2E/DX2                !
 ! R5    R(2,3)                  1.3334         estimate D2E/DX2                !
 ! R6    R(2,9)                  1.3989         estimate D2E/DX2                !
 ! R7    R(3,4)                  1.0874         estimate D2E/DX2                !
 ! R8    R(3,5)                  1.4182         estimate D2E/DX2                !
 ! R9    R(5,6)                  1.0862         estimate D2E/DX2                !
 ! R10   R(5,7)                  1.3907         estimate D2E/DX2                !
 ! R11   R(7,8)                  1.0856         estimate D2E/DX2                !
 ! R12   R(7,9)                  1.4199         estimate D2E/DX2                !
 ! R13   R(9,10)                 1.4461         estimate D2E/DX2                !
 ! R14   R(10,18)                1.4464         estimate D2E/DX2                !
 ! R15   R(10,21)                1.4384         estimate D2E/DX2                !
 ! R16   R(11,12)                1.3335         estimate D2E/DX2                !
 ! R17   R(11,18)                1.3989         estimate D2E/DX2                !
 ! R18   R(12,13)                1.0874         estimate D2E/DX2                !
 ! R19   R(12,14)                1.4182         estimate D2E/DX2                !
 ! R20   R(14,15)                1.0862         estimate D2E/DX2                !
 ! R21   R(14,16)                1.3907         estimate D2E/DX2                !
 ! R22   R(16,17)                1.0857         estimate D2E/DX2                !
 ! R23   R(16,18)                1.4199         estimate D2E/DX2                !
 ! R24   R(21,22)                1.4168         estimate D2E/DX2                !
 ! R25   R(21,29)                1.4168         estimate D2E/DX2                !
 ! R26   R(22,23)                1.0889         estimate D2E/DX2                !
 ! R27   R(22,24)                1.3876         estimate D2E/DX2                !
 ! R28   R(24,25)                1.0905         estimate D2E/DX2                !
 ! R29   R(24,26)                1.3975         estimate D2E/DX2                !
 ! R30   R(26,27)                1.3974         estimate D2E/DX2                !
 ! R31   R(26,31)                1.0901         estimate D2E/DX2                !
 ! R32   R(27,28)                1.0905         estimate D2E/DX2                !
 ! R33   R(27,29)                1.3876         estimate D2E/DX2                !
 ! R34   R(29,30)                1.089          estimate D2E/DX2                !
 ! A1    A(2,1,11)             101.9836         estimate D2E/DX2                !
 ! A2    A(2,1,19)             110.5514         estimate D2E/DX2                !
 ! A3    A(2,1,20)             110.3687         estimate D2E/DX2                !
 ! A4    A(11,1,19)            110.5695         estimate D2E/DX2                !
 ! A5    A(11,1,20)            110.3771         estimate D2E/DX2                !
 ! A6    A(19,1,20)            112.5065         estimate D2E/DX2                !
 ! A7    A(1,2,3)              128.9472         estimate D2E/DX2                !
 ! A8    A(1,2,9)              122.0884         estimate D2E/DX2                !
 ! A9    A(3,2,9)              108.8569         estimate D2E/DX2                !
 ! A10   A(2,3,4)              120.5784         estimate D2E/DX2                !
 ! A11   A(2,3,5)              109.543          estimate D2E/DX2                !
 ! A12   A(4,3,5)              129.8783         estimate D2E/DX2                !
 ! A13   A(3,5,6)              125.5836         estimate D2E/DX2                !
 ! A14   A(3,5,7)              107.0431         estimate D2E/DX2                !
 ! A15   A(6,5,7)              127.3733         estimate D2E/DX2                !
 ! A16   A(5,7,8)              127.5214         estimate D2E/DX2                !
 ! A17   A(5,7,9)              107.0385         estimate D2E/DX2                !
 ! A18   A(8,7,9)              125.4206         estimate D2E/DX2                !
 ! A19   A(2,9,7)              107.488          estimate D2E/DX2                !
 ! A20   A(2,9,10)             119.675          estimate D2E/DX2                !
 ! A21   A(7,9,10)             132.4882         estimate D2E/DX2                !
 ! A22   A(9,10,18)            110.2326         estimate D2E/DX2                !
 ! A23   A(9,10,21)            124.6633         estimate D2E/DX2                !
 ! A24   A(18,10,21)           124.646          estimate D2E/DX2                !
 ! A25   A(1,11,12)            128.9401         estimate D2E/DX2                !
 ! A26   A(1,11,18)            122.0841         estimate D2E/DX2                !
 ! A27   A(12,11,18)           108.8567         estimate D2E/DX2                !
 ! A28   A(11,12,13)           120.5797         estimate D2E/DX2                !
 ! A29   A(11,12,14)           109.5416         estimate D2E/DX2                !
 ! A30   A(13,12,14)           129.8783         estimate D2E/DX2                !
 ! A31   A(12,14,15)           125.5878         estimate D2E/DX2                !
 ! A32   A(12,14,16)           107.0417         estimate D2E/DX2                !
 ! A33   A(15,14,16)           127.3705         estimate D2E/DX2                !
 ! A34   A(14,16,17)           127.5219         estimate D2E/DX2                !
 ! A35   A(14,16,18)           107.0379         estimate D2E/DX2                !
 ! A36   A(17,16,18)           125.4214         estimate D2E/DX2                !
 ! A37   A(10,18,11)           119.6848         estimate D2E/DX2                !
 ! A38   A(10,18,16)           132.4802         estimate D2E/DX2                !
 ! A39   A(11,18,16)           107.4904         estimate D2E/DX2                !
 ! A40   A(10,21,22)           121.2024         estimate D2E/DX2                !
 ! A41   A(10,21,29)           121.2096         estimate D2E/DX2                !
 ! A42   A(22,21,29)           117.5349         estimate D2E/DX2                !
 ! A43   A(21,22,23)           119.6891         estimate D2E/DX2                !
 ! A44   A(21,22,24)           120.9828         estimate D2E/DX2                !
 ! A45   A(23,22,24)           119.3034         estimate D2E/DX2                !
 ! A46   A(22,24,25)           119.4035         estimate D2E/DX2                !
 ! A47   A(22,24,26)           120.571          estimate D2E/DX2                !
 ! A48   A(25,24,26)           120.0219         estimate D2E/DX2                !
 ! A49   A(24,26,27)           119.2974         estimate D2E/DX2                !
 ! A50   A(24,26,31)           120.3456         estimate D2E/DX2                !
 ! A51   A(27,26,31)           120.3443         estimate D2E/DX2                !
 ! A52   A(26,27,28)           120.0258         estimate D2E/DX2                !
 ! A53   A(26,27,29)           120.5743         estimate D2E/DX2                !
 ! A54   A(28,27,29)           119.3964         estimate D2E/DX2                !
 ! A55   A(21,29,27)           120.9797         estimate D2E/DX2                !
 ! A56   A(21,29,30)           119.6945         estimate D2E/DX2                !
 ! A57   A(27,29,30)           119.3008         estimate D2E/DX2                !
 ! D1    D(11,1,2,3)           139.2715         estimate D2E/DX2                !
 ! D2    D(11,1,2,9)           -36.5239         estimate D2E/DX2                !
 ! D3    D(19,1,2,3)          -103.1373         estimate D2E/DX2                !
 ! D4    D(19,1,2,9)            81.0673         estimate D2E/DX2                !
 ! D5    D(20,1,2,3)            21.9809         estimate D2E/DX2                !
 ! D6    D(20,1,2,9)          -153.8145         estimate D2E/DX2                !
 ! D7    D(2,1,11,12)         -139.1822         estimate D2E/DX2                !
 ! D8    D(2,1,11,18)           36.3892         estimate D2E/DX2                !
 ! D9    D(19,1,11,12)         103.2396         estimate D2E/DX2                !
 ! D10   D(19,1,11,18)         -81.189          estimate D2E/DX2                !
 ! D11   D(20,1,11,12)         -21.8977         estimate D2E/DX2                !
 ! D12   D(20,1,11,18)         153.6737         estimate D2E/DX2                !
 ! D13   D(1,2,3,4)              3.712          estimate D2E/DX2                !
 ! D14   D(1,2,3,5)           -176.1031         estimate D2E/DX2                !
 ! D15   D(9,2,3,4)            179.9484         estimate D2E/DX2                !
 ! D16   D(9,2,3,5)              0.1333         estimate D2E/DX2                !
 ! D17   D(1,2,9,7)            175.3782         estimate D2E/DX2                !
 ! D18   D(1,2,9,10)             1.3375         estimate D2E/DX2                !
 ! D19   D(3,2,9,7)             -1.1673         estimate D2E/DX2                !
 ! D20   D(3,2,9,10)          -175.2081         estimate D2E/DX2                !
 ! D21   D(2,3,5,6)           -179.0094         estimate D2E/DX2                !
 ! D22   D(2,3,5,7)              0.9718         estimate D2E/DX2                !
 ! D23   D(4,3,5,6)              1.1981         estimate D2E/DX2                !
 ! D24   D(4,3,5,7)           -178.8207         estimate D2E/DX2                !
 ! D25   D(3,5,7,8)            176.797          estimate D2E/DX2                !
 ! D26   D(3,5,7,9)             -1.6516         estimate D2E/DX2                !
 ! D27   D(6,5,7,8)             -3.2222         estimate D2E/DX2                !
 ! D28   D(6,5,7,9)            178.3291         estimate D2E/DX2                !
 ! D29   D(5,7,9,2)              1.7472         estimate D2E/DX2                !
 ! D30   D(5,7,9,10)           174.7209         estimate D2E/DX2                !
 ! D31   D(8,7,9,2)           -176.7429         estimate D2E/DX2                !
 ! D32   D(8,7,9,10)            -3.7692         estimate D2E/DX2                !
 ! D33   D(2,9,10,18)           38.2167         estimate D2E/DX2                !
 ! D34   D(2,9,10,21)         -149.2588         estimate D2E/DX2                !
 ! D35   D(7,9,10,18)         -134.0662         estimate D2E/DX2                !
 ! D36   D(7,9,10,21)           38.4584         estimate D2E/DX2                !
 ! D37   D(9,10,18,11)         -38.3516         estimate D2E/DX2                !
 ! D38   D(9,10,18,16)         133.9795         estimate D2E/DX2                !
 ! D39   D(21,10,18,11)        149.1223         estimate D2E/DX2                !
 ! D40   D(21,10,18,16)        -38.5466         estimate D2E/DX2                !
 ! D41   D(9,10,21,22)           5.644          estimate D2E/DX2                !
 ! D42   D(9,10,21,29)        -177.0728         estimate D2E/DX2                !
 ! D43   D(18,10,21,22)        177.1106         estimate D2E/DX2                !
 ! D44   D(18,10,21,29)         -5.6062         estimate D2E/DX2                !
 ! D45   D(1,11,12,13)          -3.9072         estimate D2E/DX2                !
 ! D46   D(1,11,12,14)         175.8862         estimate D2E/DX2                !
 ! D47   D(18,11,12,13)       -179.943          estimate D2E/DX2                !
 ! D48   D(18,11,12,14)         -0.1496         estimate D2E/DX2                !
 ! D49   D(1,11,18,10)          -1.0846         estimate D2E/DX2                !
 ! D50   D(1,11,18,16)        -175.1616         estimate D2E/DX2                !
 ! D51   D(12,11,18,10)        175.2767         estimate D2E/DX2                !
 ! D52   D(12,11,18,16)          1.1996         estimate D2E/DX2                !
 ! D53   D(11,12,14,15)        178.9889         estimate D2E/DX2                !
 ! D54   D(11,12,14,16)         -0.9781         estimate D2E/DX2                !
 ! D55   D(13,12,14,15)         -1.2429         estimate D2E/DX2                !
 ! D56   D(13,12,14,16)        178.7901         estimate D2E/DX2                !
 ! D57   D(12,14,16,17)       -176.8002         estimate D2E/DX2                !
 ! D58   D(12,14,16,18)          1.6774         estimate D2E/DX2                !
 ! D59   D(15,14,16,17)          3.2335         estimate D2E/DX2                !
 ! D60   D(15,14,16,18)       -178.2888         estimate D2E/DX2                !
 ! D61   D(14,16,18,10)       -174.8011         estimate D2E/DX2                !
 ! D62   D(14,16,18,11)         -1.7829         estimate D2E/DX2                !
 ! D63   D(17,16,18,10)          3.7173         estimate D2E/DX2                !
 ! D64   D(17,16,18,11)        176.7355         estimate D2E/DX2                !
 ! D65   D(10,21,22,23)          1.615          estimate D2E/DX2                !
 ! D66   D(10,21,22,24)        179.7957         estimate D2E/DX2                !
 ! D67   D(29,21,22,23)       -175.7647         estimate D2E/DX2                !
 ! D68   D(29,21,22,24)          2.4161         estimate D2E/DX2                !
 ! D69   D(10,21,29,27)       -179.7904         estimate D2E/DX2                !
 ! D70   D(10,21,29,30)         -1.6203         estimate D2E/DX2                !
 ! D71   D(22,21,29,27)         -2.411          estimate D2E/DX2                !
 ! D72   D(22,21,29,30)        175.7591         estimate D2E/DX2                !
 ! D73   D(21,22,24,25)       -179.8708         estimate D2E/DX2                !
 ! D74   D(21,22,24,26)         -0.5504         estimate D2E/DX2                !
 ! D75   D(23,22,24,25)         -1.6831         estimate D2E/DX2                !
 ! D76   D(23,22,24,26)        177.6373         estimate D2E/DX2                !
 ! D77   D(22,24,26,27)         -1.3945         estimate D2E/DX2                !
 ! D78   D(22,24,26,31)        179.8982         estimate D2E/DX2                !
 ! D79   D(25,24,26,27)        177.9216         estimate D2E/DX2                !
 ! D80   D(25,24,26,31)         -0.7856         estimate D2E/DX2                !
 ! D81   D(24,26,27,28)       -177.9153         estimate D2E/DX2                !
 ! D82   D(24,26,27,29)          1.3996         estimate D2E/DX2                !
 ! D83   D(31,26,27,28)          0.7919         estimate D2E/DX2                !
 ! D84   D(31,26,27,29)       -179.8932         estimate D2E/DX2                !
 ! D85   D(26,27,29,21)          0.5402         estimate D2E/DX2                !
 ! D86   D(26,27,29,30)       -177.637          estimate D2E/DX2                !
 ! D87   D(28,27,29,21)        179.8594         estimate D2E/DX2                !
 ! D88   D(28,27,29,30)          1.6821         estimate D2E/DX2                !
 --------------------------------------------------------------------------------
 Trust Radius=3.00D-01 FncErr=5.00D-06 GrdErr=5.00D-06 EigMax=2.50D+02 EigMin=1.00D-04
 Number of steps in this run=    186 maximum allowed number of steps=    186.
 GradGradGradGradGradGradGradGradGradGradGradGradGradGradGradGradGradGrad

 Leave Link  103 at Tue Feb  1 12:34:49 2022, MaxMem= 11408506880 cpu:               0.4 elap:               0.0
 (Enter /lustre1/prg/gaussian/bin/G16_C01_Linda9.2_SSE4/g16/l202.exe)
                          Input orientation:                          
 ---------------------------------------------------------------------
 Center     Atomic      Atomic             Coordinates (Angstroms)
 Number     Number       Type             X           Y           Z
 ---------------------------------------------------------------------
      1          5           0       -0.226459    1.026812    0.366463
      2          7           0       -0.063462    0.117158    1.618295
      3          6           0        1.048809   -0.405898    2.135222
      4          1           0        2.021194   -0.167721    1.710815
      5          6           0        0.714744   -1.245178    3.228518
      6          1           0        1.422671   -1.789411    3.846891
      7          6           0       -0.670943   -1.229853    3.345611
      8          1           0       -1.281919   -1.795257    4.042479
      9          6           0       -1.163278   -0.350078    2.345698
     10          6           0       -2.501871   -0.009279    1.917580
     11          7           0       -1.513186    0.447418   -0.288528
     12          6           0       -1.774374    0.235850   -1.578922
     13          1           0       -1.061486    0.534415   -2.343826
     14          6           0       -3.037583   -0.395268   -1.709952
     15          1           0       -3.511843   -0.671799   -2.647172
     16          6           0       -3.534609   -0.583147   -0.424714
     17          1           0       -4.456386   -1.080078   -0.138313
     18          6           0       -2.585327   -0.028326    0.473683
     19          9           0       -0.424564    2.347126    0.746029
     20          9           0        0.856740    0.876303   -0.483047
     21          6           0       -3.626401    0.153085    2.799581
     22          6           0       -3.469244    0.100324    4.206627
     23          1           0       -2.477342   -0.039565    4.633673
     24          6           0       -4.556616    0.261739    5.053379
     25          1           0       -4.405886    0.218510    6.132511
     26          6           0       -5.833553    0.492130    4.534417
     27          6           0       -6.002176    0.588139    3.150548
     28          1           0       -6.987290    0.801491    2.734377
     29          6           0       -4.921445    0.428118    2.295037
     30          1           0       -5.068829    0.545480    1.222494
     31          1           0       -6.685495    0.616763    5.202967
 ---------------------------------------------------------------------
                    Distance matrix (angstroms):
                    1          2          3          4          5
     1  B    0.000000
     2  N    1.555995   0.000000
     3  C    2.609114   1.333397   0.000000
     4  H    2.878565   2.106064   1.087374   0.000000
     5  C    3.773481   2.248195   1.418198   2.274016   0.000000
     6  H    4.771176   3.287892   2.232418   2.747895   1.086156
     7  C    3.763698   2.273124   2.258648   3.323896   1.390710
     8  H    4.753016   3.319433   3.316661   4.358450   2.225260
     9  C    2.586663   1.398935   2.222779   3.252260   2.259987
    10  C    2.942269   2.459959   3.579386   4.530560   3.686817
    11  N    1.555756   2.418004   3.628571   4.107020   4.494237
    12  C    2.608867   3.628154   4.709253   5.039005   5.612542
    13  H    2.878436   4.107135   5.039782   5.141597   6.113343
    14  C    3.773093   4.492795   5.611067   6.111027   6.260255
    15  H    4.770851   5.541479   6.613739   7.061207   7.260615
    16  C    3.763215   4.088175   5.252848   5.966574   5.642818
    17  H    4.752480   4.880249   5.994218   6.797846   6.172795
    18  C    2.586324   2.773284   4.013753   4.771788   4.467697
    19  F    1.388000   2.421570   3.417576   3.638269   4.512806
    20  F    1.384789   2.416342   2.921688   2.694248   4.277448
    21  C    4.271190   3.753833   4.755147   5.760526   4.580902
    22  C    5.110860   4.277744   4.995977   6.037039   4.502536
    23  H    4.940923   3.865732   4.337073   5.366223   3.690173
    24  C    6.426724   5.657662   6.354697   7.390856   5.778248
    25  H    7.167166   6.264588   6.791311   7.810757   6.066004
    26  C    7.006941   6.475980   7.343671   8.372884   6.899551
    27  C    6.426700   6.151256   7.192731   8.186490   6.963056
    28  H    7.167051   7.046513   8.148353   9.118105   7.984633
    29  C    5.110844   4.914741   6.030345   6.992609   5.952977
    30  H    4.940953   5.039228   6.258090   7.142516   6.378111
    31  H    8.079546   7.546575   8.383099   9.413659   7.882183
                    6          7          8          9         10
     6  H    0.000000
     7  C    2.224322   0.000000
     8  H    2.711659   1.085633   0.000000
     9  C    3.318492   1.419938   2.231969   0.000000
    10  C    4.721561   2.623237   3.032028   1.446119   0.000000
    11  N    5.542955   4.090181   4.882694   2.774452   2.460281
    12  C    6.615302   5.255176   5.997337   4.014896   3.579786
    13  H    7.063723   5.969494   6.801533   4.773293   4.530993
    14  C    7.260579   5.644133   6.175175   4.468037   3.687135
    15  H    8.232335   6.655493   7.140459   5.527026   4.721857
    16  C    6.654044   4.778510   5.147780   3.654137   2.623397
    17  H    7.137809   5.146818   5.297900   4.189006   3.032068
    18  C    5.526663   3.654655   4.190134   2.372802   1.446432
    19  F    5.489860   4.428691   5.362926   3.221731   3.352668
    20  F    5.116119   4.629074   5.673754   3.685957   4.222266
    21  C    5.510288   3.308383   3.292025   2.554635   1.438352
    22  C    5.256552   3.215775   2.899062   2.997232   2.487481
    23  H    4.346388   2.517730   2.204768   2.656692   2.716373
    24  C    6.435426   4.498864   3.997098   4.384130   3.758811
    25  H    6.574791   4.879997   4.264113   5.017744   4.630638
    26  C    7.637467   5.570550   5.117765   5.226019   4.266070
    27  C    7.827259   5.636062   5.362550   4.994294   3.758890
    28  H    8.870057   6.663048   6.403553   5.949479   4.630711
    29  C    6.897354   4.681810   4.609024   3.838225   2.487595
    30  H    7.380972   5.196233   5.269920   4.161363   2.716648
    31  H    8.565686   6.560076   6.030191   6.292348   5.356156
                   11         12         13         14         15
    11  N    0.000000
    12  C    1.333453   0.000000
    13  H    2.106146   1.087395   0.000000
    14  C    2.248189   1.418159   2.273998   0.000000
    15  H    3.287929   2.232439   2.747948   1.086174   0.000000
    16  C    2.273051   2.258623   3.323894   1.390744   2.224342
    17  H    3.319373   3.316656   4.358465   2.225313   2.711683
    18  C    1.398851   2.222751   3.252249   2.259965   3.318467
    19  F    2.421631   3.418314   3.638515   4.514470   5.491722
    20  F    2.416263   2.921281   2.694249   4.276440   5.115132
    21  C    3.753495   4.754802   5.760107   4.580752   5.510052
    22  C    4.914576   6.030218   6.992436   5.952970   6.897286
    23  H    5.039327   6.258303   7.142800   6.378242   7.381099
    24  C    6.150847   7.192285   8.185898   6.962885   7.826974
    25  H    7.046265   8.148089   9.117735   7.984560   8.869881
    26  C    6.475212   7.342719   8.371657   6.899063   7.636772
    27  C    5.656684   6.353448   7.389279   5.777574   6.434498
    28  H    6.263317   6.789624   7.808625   6.065021   6.573461
    29  C    4.276846   4.994855   6.035697   4.501870   5.255685
    30  H    3.864635   4.335578   5.364472   3.689201   4.345145
    31  H    7.545726   8.382018   9.412244   7.881619   8.564878
                   16         17         18         19         20
    16  C    0.000000
    17  H    1.085651   0.000000
    18  C    1.419887   2.231946   0.000000
    19  F    4.430521   5.365014   3.222707   0.000000
    20  F    4.627888   5.672352   3.685310   2.305578   0.000000
    21  C    3.308556   3.292535   2.554711   4.391202   5.603324
    22  C    4.681957   4.609371   3.838324   5.127761   6.427233
    23  H    5.196208   5.269832   4.161406   5.002396   6.175414
    24  C    5.636296   5.363225   4.994370   6.322654   7.767504
    25  H    6.663256   6.404070   5.949596   7.028237   8.479005
    26  C    5.570848   5.118870   5.226032   6.859304   8.371532
    27  C    4.499255   3.998627   4.384118   6.323409   7.767289
    28  H    4.880377   4.265926   5.017630   7.029359   8.478574
    29  C    3.216056   2.900367   2.997185   5.128738   6.426978
    30  H    2.518119   2.206654   2.656643   5.004213   6.175005
    31  H    6.560386   6.031374   6.292348   7.877672   9.448991
                   21         22         23         24         25
    21  C    0.000000
    22  C    1.416778   0.000000
    23  H    2.172865   1.088948   0.000000
    24  C    2.440637   1.387596   2.142503   0.000000
    25  H    3.423492   2.144830   2.456094   1.090465   0.000000
    26  C    2.827742   2.418867   3.399515   1.397487   2.160325
    27  C    2.440647   2.787295   3.875323   2.411835   3.402480
    28  H    3.423486   3.877603   4.965313   3.402540   4.307067
    29  C    1.416809   2.422914   3.414906   2.787334   3.877621
    30  H    2.172965   3.414950   4.323682   3.875378   4.965347
    31  H    3.917821   3.406416   4.296907   2.163457   2.493847
                   26         27         28         29         30
    26  C    0.000000
    27  C    1.397406   0.000000
    28  H    2.160314   1.090489   0.000000
    29  C    2.418855   1.387619   2.144794   0.000000
    30  H    3.399483   2.142510   2.455977   1.088965   0.000000
    31  H    1.090091   2.163370   2.493821   3.406393   4.296843
                   31
    31  H    0.000000
 Symmetry turned off by external request.
 Stoichiometry    C15H11BF2N2
 Framework group  C1[X(C15H11BF2N2)]
 Deg. of freedom    87
 Full point group                 C1      NOp   1
 Rotational constants (GHZ):           0.5560776           0.2855457           0.2176557
 Leave Link  202 at Tue Feb  1 12:34:49 2022, MaxMem= 11408506880 cpu:               0.1 elap:               0.0
 (Enter /lustre1/prg/gaussian/bin/G16_C01_Linda9.2_SSE4/g16/l301.exe)
 Standard basis: CC-pVDZ (5D, 7F)
 Ernie: Thresh=  0.10000D-02 Tol=  0.10000D-05 Strict=F.
 Ernie:  40 primitive shells out of 495 were deleted.
   335 basis functions,   737 primitive gaussians,   355 cartesian basis functions
    69 alpha electrons       69 beta electrons
       nuclear repulsion energy      1473.2176186076 Hartrees.
 IExCor= 4336 DFT=T Ex+Corr=M062X ExCW=0 ScaHFX=  0.540000
 ScaDFX=  1.000000  1.000000  1.000000  1.000000 ScalE2=  1.000000  1.000000
 IRadAn=      5 IRanWt=     -1 IRanGd=            0 ICorTp=0 IEmpDi=  4
 NAtoms=   31 NActive=   31 NUniq=   31 SFac= 1.00D+00 NAtFMM=   60 NAOKFM=F Big=F
 Integral buffers will be    131072 words long.
 Regular integral format.
 Two-electron integral symmetry is turned off.
 ------------------------------------------------------------------------------
 Polarizable Continuum Model (PCM)
 =================================
 Model                : C-PCM.
 Atomic radii         : UFF (Universal Force Field).
 Polarization charges : Total charges.
 Charge compensation  : None.
 Solution method      : On-the-fly selection.
 Cavity type          : Scaled VdW (van der Waals Surface) (Alpha=1.100).
 Cavity algorithm     : GePol (No added spheres)
                        Default sphere list used, NSphG=   31.
                        Lebedev-Laikov grids with approx.  5.0 points / Ang**2.
                        Smoothing algorithm: York/Karplus (Gamma=1.0000).
                        Polarization charges: spherical gaussians, with
                                              point-specific exponents (IZeta= 3).
                        Self-potential: point-specific (ISelfS= 7).
                        Self-field    : sphere-specific E.n sum rule (ISelfD= 2).
 1st derivatives      : Analytical E(r).r(x)/FMM algorithm (CHGder, D1EAlg=3).
                        Cavity 1st derivative terms included.
 Solvent              : Acetone, Eps=  20.493000 Eps(inf)=   1.846337
 ------------------------------------------------------------------------------
 GePol: Number of generator spheres                  =      31
 GePol: Total number of spheres                      =      31
 GePol: Number of exposed spheres                    =      31 (100.00%)
 GePol: Number of points                             =    2486
 GePol: Average weight of points                     =       0.13
 GePol: Minimum weight of points                     =   0.57D-10
 GePol: Maximum weight of points                     =    0.20577
 GePol: Number of points with low weight             =     173
 GePol: Fraction of low-weight points (<1% of avg)   =       6.96%
 GePol: Cavity surface area                          =    312.036 Ang**2
 GePol: Cavity volume                                =    344.106 Ang**3
 Leave Link  301 at Tue Feb  1 12:34:49 2022, MaxMem= 11408506880 cpu:               1.4 elap:               0.1
@@@@@@@@@@@@@@@@@@@@@@@@@@@@@@@@@@@@@@@@@@@@@@@@@@@@@@@@@@@
@    WARNING: REMOTE HOST IDENTIFICATION HAS CHANGED!     @
@@@@@@@@@@@@@@@@@@@@@@@@@@@@@@@@@@@@@@@@@@@@@@@@@@@@@@@@@@@
IT IS POSSIBLE THAT SOMEONE IS DOING SOMETHING NASTY!
Someone could be eavesdropping on you right now (man-in-the-middle attack)!
It is also possible that a host key has just been changed.
The fingerprint for the ECDSA key sent by the remote host is
SHA256:GrKekbUI0EXjIn2+8KWdVGCxz/8JpOOEF1MyBm+WVPs.
Please contact your system administrator.
Add correct host key in /lustre2/home/toliste/.ssh/known_hosts to get rid of this message.
Offending ECDSA key in /lustre2/home/toliste/.ssh/known_hosts:76
Password authentication is disabled to avoid man-in-the-middle attacks.
Keyboard-interactive authentication is disabled to avoid man-in-the-middle attacks.
@@@@@@@@@@@@@@@@@@@@@@@@@@@@@@@@@@@@@@@@@@@@@@@@@@@@@@@@@@@
@    WARNING: REMOTE HOST IDENTIFICATION HAS CHANGED!     @
@@@@@@@@@@@@@@@@@@@@@@@@@@@@@@@@@@@@@@@@@@@@@@@@@@@@@@@@@@@
IT IS POSSIBLE THAT SOMEONE IS DOING SOMETHING NASTY!
Someone could be eavesdropping on you right now (man-in-the-middle attack)!
It is also possible that a host key has just been changed.
The fingerprint for the ECDSA key sent by the remote host is
SHA256:g4f0bu5h/BuHvHVRaPQeL16zD775+R/jZLDHY4hrQGs.
Please contact your system administrator.
Add correct host key in /lustre2/home/toliste/.ssh/known_hosts to get rid of this message.
Offending ECDSA key in /lustre2/home/toliste/.ssh/known_hosts:56
Password authentication is disabled to avoid man-in-the-middle attacks.
Keyboard-interactive authentication is disabled to avoid man-in-the-middle attacks.
@@@@@@@@@@@@@@@@@@@@@@@@@@@@@@@@@@@@@@@@@@@@@@@@@@@@@@@@@@@
@    WARNING: REMOTE HOST IDENTIFICATION HAS CHANGED!     @
@@@@@@@@@@@@@@@@@@@@@@@@@@@@@@@@@@@@@@@@@@@@@@@@@@@@@@@@@@@
IT IS POSSIBLE THAT SOMEONE IS DOING SOMETHING NASTY!
Someone could be eavesdropping on you right now (man-in-the-middle attack)!
It is also possible that a host key has just been changed.
The fingerprint for the ECDSA key sent by the remote host is
SHA256:KZqoUv2lFt2Xik+CAHlyqXW42VGQuri4bjs+H5gS/9Y.
Please contact your system administrator.
Add correct host key in /lustre2/home/toliste/.ssh/known_hosts to get rid of this message.
Offending ECDSA key in /lustre2/home/toliste/.ssh/known_hosts:45
Password authentication is disabled to avoid man-in-the-middle attacks.
Keyboard-interactive authentication is disabled to avoid man-in-the-middle attacks.
@@@@@@@@@@@@@@@@@@@@@@@@@@@@@@@@@@@@@@@@@@@@@@@@@@@@@@@@@@@
@    WARNING: REMOTE HOST IDENTIFICATION HAS CHANGED!     @
@@@@@@@@@@@@@@@@@@@@@@@@@@@@@@@@@@@@@@@@@@@@@@@@@@@@@@@@@@@
IT IS POSSIBLE THAT SOMEONE IS DOING SOMETHING NASTY!
Someone could be eavesdropping on you right now (man-in-the-middle attack)!
It is also possible that a host key has just been changed.
The fingerprint for the ECDSA key sent by the remote host is
SHA256:Ki/B3btCxo943N1v5zDKOfUYHONPxVQ2BEdbCqI5VQc.
Please contact your system administrator.
Add correct host key in /lustre2/home/toliste/.ssh/known_hosts to get rid of this message.
Offending ECDSA key in /lustre2/home/toliste/.ssh/known_hosts:75
Password authentication is disabled to avoid man-in-the-middle attacks.
Keyboard-interactive authentication is disabled to avoid man-in-the-middle attacks.
@@@@@@@@@@@@@@@@@@@@@@@@@@@@@@@@@@@@@@@@@@@@@@@@@@@@@@@@@@@
@    WARNING: REMOTE HOST IDENTIFICATION HAS CHANGED!     @
@@@@@@@@@@@@@@@@@@@@@@@@@@@@@@@@@@@@@@@@@@@@@@@@@@@@@@@@@@@
IT IS POSSIBLE THAT SOMEONE IS DOING SOMETHING NASTY!
Someone could be eavesdropping on you right now (man-in-the-middle attack)!
It is also possible that a host key has just been changed.
The fingerprint for the ECDSA key sent by the remote host is
SHA256:Uz282wHl28wBm97/baJLdIpXIsVd0LwF1Owmw5BVe2Y.
Please contact your system administrator.
Add correct host key in /lustre2/home/toliste/.ssh/known_hosts to get rid of this message.
Offending ECDSA key in /lustre2/home/toliste/.ssh/known_hosts:29
Password authentication is disabled to avoid man-in-the-middle attacks.
Keyboard-interactive authentication is disabled to avoid man-in-the-middle attacks.
@@@@@@@@@@@@@@@@@@@@@@@@@@@@@@@@@@@@@@@@@@@@@@@@@@@@@@@@@@@
@    WARNING: REMOTE HOST IDENTIFICATION HAS CHANGED!     @
@@@@@@@@@@@@@@@@@@@@@@@@@@@@@@@@@@@@@@@@@@@@@@@@@@@@@@@@@@@
IT IS POSSIBLE THAT SOMEONE IS DOING SOMETHING NASTY!
Someone could be eavesdropping on you right now (man-in-the-middle attack)!
It is also possible that a host key has just been changed.
The fingerprint for the ECDSA key sent by the remote host is
SHA256:nUIzJjT4Fam54Ejlek1Nrbwz39jnyir/zslU9lYj5R0.
Please contact your system administrator.
Add correct host key in /lustre2/home/toliste/.ssh/known_hosts to get rid of this message.
Offending ECDSA key in /lustre2/home/toliste/.ssh/known_hosts:185
Password authentication is disabled to avoid man-in-the-middle attacks.
Keyboard-interactive authentication is disabled to avoid man-in-the-middle attacks.
 (Enter /lustre1/prg/gaussian/bin/G16_C01_Linda9.2_SSE4/g16/linda-exe/l302.exel)
 NPDir=0 NMtPBC=     1 NCelOv=     1 NCel=       1 NClECP=     1 NCelD=      1
         NCelK=      1 NCelE2=     1 NClLst=     1 CellRange=     0.0.
 One-electron integrals computed using PRISM.
 NBasis=   335 RedAO= T EigKep=  3.00D-04  NBF=   335
 NBsUse=   335 1.00D-06 EigRej= -1.00D+00 NBFU=   335
 Precomputing XC quadrature grid using
 IXCGrd= 4 IRadAn=           5 IRanWt=          -1 IRanGd=           0 AccXCQ= 0.00D+00.
 Generated NRdTot=       0 NPtTot=           0 NUsed=           0 NTot=          32
 NSgBfM=   354   354   354   354   354 MxSgAt=    31 MxSgA2=    31.
 Leave Link  302 at Tue Feb  1 12:34:53 2022, MaxMem= 11408506880 cpu:              18.5 elap:               1.6
 (Enter /lustre1/prg/gaussian/bin/G16_C01_Linda9.2_SSE4/g16/l303.exe)
 DipDrv:  MaxL=1.
 Leave Link  303 at Tue Feb  1 12:34:53 2022, MaxMem= 11408506880 cpu:               1.6 elap:               0.3
 (Enter /lustre1/prg/gaussian/bin/G16_C01_Linda9.2_SSE4/g16/l308.exe)
 Leave Link  308 at Tue Feb  1 12:34:54 2022, MaxMem= 11408506880 cpu:               2.4 elap:               0.4
@@@@@@@@@@@@@@@@@@@@@@@@@@@@@@@@@@@@@@@@@@@@@@@@@@@@@@@@@@@
@    WARNING: REMOTE HOST IDENTIFICATION HAS CHANGED!     @
@@@@@@@@@@@@@@@@@@@@@@@@@@@@@@@@@@@@@@@@@@@@@@@@@@@@@@@@@@@
IT IS POSSIBLE THAT SOMEONE IS DOING SOMETHING NASTY!
Someone could be eavesdropping on you right now (man-in-the-middle attack)!
It is also possible that a host key has just been changed.
The fingerprint for the ECDSA key sent by the remote host is
SHA256:g4f0bu5h/BuHvHVRaPQeL16zD775+R/jZLDHY4hrQGs.
Please contact your system administrator.
Add correct host key in /lustre2/home/toliste/.ssh/known_hosts to get rid of this message.
Offending ECDSA key in /lustre2/home/toliste/.ssh/known_hosts:56
Password authentication is disabled to avoid man-in-the-middle attacks.
Keyboard-interactive authentication is disabled to avoid man-in-the-middle attacks.
@@@@@@@@@@@@@@@@@@@@@@@@@@@@@@@@@@@@@@@@@@@@@@@@@@@@@@@@@@@
@    WARNING: REMOTE HOST IDENTIFICATION HAS CHANGED!     @
@@@@@@@@@@@@@@@@@@@@@@@@@@@@@@@@@@@@@@@@@@@@@@@@@@@@@@@@@@@
IT IS POSSIBLE THAT SOMEONE IS DOING SOMETHING NASTY!
Someone could be eavesdropping on you right now (man-in-the-middle attack)!
It is also possible that a host key has just been changed.
The fingerprint for the ECDSA key sent by the remote host is
SHA256:Ki/B3btCxo943N1v5zDKOfUYHONPxVQ2BEdbCqI5VQc.
Please contact your system administrator.
Add correct host key in /lustre2/home/toliste/.ssh/known_hosts to get rid of this message.
Offending ECDSA key in /lustre2/home/toliste/.ssh/known_hosts:75
Password authentication is disabled to avoid man-in-the-middle attacks.
Keyboard-interactive authentication is disabled to avoid man-in-the-middle attacks.
@@@@@@@@@@@@@@@@@@@@@@@@@@@@@@@@@@@@@@@@@@@@@@@@@@@@@@@@@@@
@    WARNING: REMOTE HOST IDENTIFICATION HAS CHANGED!     @
@@@@@@@@@@@@@@@@@@@@@@@@@@@@@@@@@@@@@@@@@@@@@@@@@@@@@@@@@@@
IT IS POSSIBLE THAT SOMEONE IS DOING SOMETHING NASTY!
Someone could be eavesdropping on you right now (man-in-the-middle attack)!
It is also possible that a host key has just been changed.
The fingerprint for the ECDSA key sent by the remote host is
SHA256:KZqoUv2lFt2Xik+CAHlyqXW42VGQuri4bjs+H5gS/9Y.
Please contact your system administrator.
Add correct host key in /lustre2/home/toliste/.ssh/known_hosts to get rid of this message.
Offending ECDSA key in /lustre2/home/toliste/.ssh/known_hosts:45
Password authentication is disabled to avoid man-in-the-middle attacks.
Keyboard-interactive authentication is disabled to avoid man-in-the-middle attacks.
@@@@@@@@@@@@@@@@@@@@@@@@@@@@@@@@@@@@@@@@@@@@@@@@@@@@@@@@@@@
@    WARNING: REMOTE HOST IDENTIFICATION HAS CHANGED!     @
@@@@@@@@@@@@@@@@@@@@@@@@@@@@@@@@@@@@@@@@@@@@@@@@@@@@@@@@@@@
IT IS POSSIBLE THAT SOMEONE IS DOING SOMETHING NASTY!
Someone could be eavesdropping on you right now (man-in-the-middle attack)!
It is also possible that a host key has just been changed.
The fingerprint for the ECDSA key sent by the remote host is
SHA256:Uz282wHl28wBm97/baJLdIpXIsVd0LwF1Owmw5BVe2Y.
Please contact your system administrator.
Add correct host key in /lustre2/home/toliste/.ssh/known_hosts to get rid of this message.
Offending ECDSA key in /lustre2/home/toliste/.ssh/known_hosts:29
Password authentication is disabled to avoid man-in-the-middle attacks.
Keyboard-interactive authentication is disabled to avoid man-in-the-middle attacks.
@@@@@@@@@@@@@@@@@@@@@@@@@@@@@@@@@@@@@@@@@@@@@@@@@@@@@@@@@@@
@    WARNING: REMOTE HOST IDENTIFICATION HAS CHANGED!     @
@@@@@@@@@@@@@@@@@@@@@@@@@@@@@@@@@@@@@@@@@@@@@@@@@@@@@@@@@@@
IT IS POSSIBLE THAT SOMEONE IS DOING SOMETHING NASTY!
Someone could be eavesdropping on you right now (man-in-the-middle attack)!
It is also possible that a host key has just been changed.
The fingerprint for the ECDSA key sent by the remote host is
SHA256:GrKekbUI0EXjIn2+8KWdVGCxz/8JpOOEF1MyBm+WVPs.
Please contact your system administrator.
Add correct host key in /lustre2/home/toliste/.ssh/known_hosts to get rid of this message.
Offending ECDSA key in /lustre2/home/toliste/.ssh/known_hosts:76
Password authentication is disabled to avoid man-in-the-middle attacks.
Keyboard-interactive authentication is disabled to avoid man-in-the-middle attacks.
@@@@@@@@@@@@@@@@@@@@@@@@@@@@@@@@@@@@@@@@@@@@@@@@@@@@@@@@@@@
@    WARNING: REMOTE HOST IDENTIFICATION HAS CHANGED!     @
@@@@@@@@@@@@@@@@@@@@@@@@@@@@@@@@@@@@@@@@@@@@@@@@@@@@@@@@@@@
IT IS POSSIBLE THAT SOMEONE IS DOING SOMETHING NASTY!
Someone could be eavesdropping on you right now (man-in-the-middle attack)!
It is also possible that a host key has just been changed.
The fingerprint for the ECDSA key sent by the remote host is
SHA256:nUIzJjT4Fam54Ejlek1Nrbwz39jnyir/zslU9lYj5R0.
Please contact your system administrator.
Add correct host key in /lustre2/home/toliste/.ssh/known_hosts to get rid of this message.
Offending ECDSA key in /lustre2/home/toliste/.ssh/known_hosts:185
Password authentication is disabled to avoid man-in-the-middle attacks.
Keyboard-interactive authentication is disabled to avoid man-in-the-middle attacks.
 (Enter /lustre1/prg/gaussian/bin/G16_C01_Linda9.2_SSE4/g16/linda-exe/l401.exel)
 ExpMin= 9.54D-02 ExpMax= 1.47D+04 ExpMxC= 5.03D+02 IAcc=3 IRadAn=         5 AccDes= 0.00D+00
 Harris functional with IExCor= 1009 and IRadAn=       5 diagonalized for initial guess.
 HarFok:  IExCor= 1009 AccDes= 0.00D+00 IRadAn=         5 IDoV= 1 UseB2=F ITyADJ=14
 ICtDFT=  3500011 ScaDFX=  1.000000  1.000000  1.000000  1.000000
 FoFCou: FMM=F IPFlag=           0 FMFlag=      100000 FMFlg1=           0
         NFxFlg=           0 DoJE=T BraDBF=F KetDBF=T FulRan=T
         wScrn=  0.000000 ICntrl=       500 IOpCl=  0 I1Cent=   200000004 NGrid=           0
         NMat0=    1 NMatS0=      1 NMatT0=    0 NMatD0=    1 NMtDS0=    0 NMtDT0=    0
 Symmetry not used in FoFCou.
 Harris En= -911.547355225092    
 JPrj=0 DoOrth=F DoCkMO=F.
 Leave Link  401 at Tue Feb  1 12:35:00 2022, MaxMem= 11408506880 cpu:              37.7 elap:               3.3
@@@@@@@@@@@@@@@@@@@@@@@@@@@@@@@@@@@@@@@@@@@@@@@@@@@@@@@@@@@
@    WARNING: REMOTE HOST IDENTIFICATION HAS CHANGED!     @
@@@@@@@@@@@@@@@@@@@@@@@@@@@@@@@@@@@@@@@@@@@@@@@@@@@@@@@@@@@
IT IS POSSIBLE THAT SOMEONE IS DOING SOMETHING NASTY!
Someone could be eavesdropping on you right now (man-in-the-middle attack)!
It is also possible that a host key has just been changed.
The fingerprint for the ECDSA key sent by the remote host is
SHA256:Uz282wHl28wBm97/baJLdIpXIsVd0LwF1Owmw5BVe2Y.
Please contact your system administrator.
Add correct host key in /lustre2/home/toliste/.ssh/known_hosts to get rid of this message.
Offending ECDSA key in /lustre2/home/toliste/.ssh/known_hosts:29
Password authentication is disabled to avoid man-in-the-middle attacks.
Keyboard-interactive authentication is disabled to avoid man-in-the-middle attacks.
@@@@@@@@@@@@@@@@@@@@@@@@@@@@@@@@@@@@@@@@@@@@@@@@@@@@@@@@@@@
@    WARNING: REMOTE HOST IDENTIFICATION HAS CHANGED!     @
@@@@@@@@@@@@@@@@@@@@@@@@@@@@@@@@@@@@@@@@@@@@@@@@@@@@@@@@@@@
IT IS POSSIBLE THAT SOMEONE IS DOING SOMETHING NASTY!
Someone could be eavesdropping on you right now (man-in-the-middle attack)!
It is also possible that a host key has just been changed.
The fingerprint for the ECDSA key sent by the remote host is
SHA256:nUIzJjT4Fam54Ejlek1Nrbwz39jnyir/zslU9lYj5R0.
Please contact your system administrator.
Add correct host key in /lustre2/home/toliste/.ssh/known_hosts to get rid of this message.
Offending ECDSA key in /lustre2/home/toliste/.ssh/known_hosts:185
Password authentication is disabled to avoid man-in-the-middle attacks.
Keyboard-interactive authentication is disabled to avoid man-in-the-middle attacks.
@@@@@@@@@@@@@@@@@@@@@@@@@@@@@@@@@@@@@@@@@@@@@@@@@@@@@@@@@@@
@    WARNING: REMOTE HOST IDENTIFICATION HAS CHANGED!     @
@@@@@@@@@@@@@@@@@@@@@@@@@@@@@@@@@@@@@@@@@@@@@@@@@@@@@@@@@@@
IT IS POSSIBLE THAT SOMEONE IS DOING SOMETHING NASTY!
Someone could be eavesdropping on you right now (man-in-the-middle attack)!
It is also possible that a host key has just been changed.
The fingerprint for the ECDSA key sent by the remote host is
SHA256:GrKekbUI0EXjIn2+8KWdVGCxz/8JpOOEF1MyBm+WVPs.
Please contact your system administrator.
Add correct host key in /lustre2/home/toliste/.ssh/known_hosts to get rid of this message.
Offending ECDSA key in /lustre2/home/toliste/.ssh/known_hosts:76
Password authentication is disabled to avoid man-in-the-middle attacks.
Keyboard-interactive authentication is disabled to avoid man-in-the-middle attacks.
@@@@@@@@@@@@@@@@@@@@@@@@@@@@@@@@@@@@@@@@@@@@@@@@@@@@@@@@@@@
@    WARNING: REMOTE HOST IDENTIFICATION HAS CHANGED!     @
@@@@@@@@@@@@@@@@@@@@@@@@@@@@@@@@@@@@@@@@@@@@@@@@@@@@@@@@@@@
IT IS POSSIBLE THAT SOMEONE IS DOING SOMETHING NASTY!
Someone could be eavesdropping on you right now (man-in-the-middle attack)!
It is also possible that a host key has just been changed.
The fingerprint for the ECDSA key sent by the remote host is
SHA256:Ki/B3btCxo943N1v5zDKOfUYHONPxVQ2BEdbCqI5VQc.
Please contact your system administrator.
Add correct host key in /lustre2/home/toliste/.ssh/known_hosts to get rid of this message.
Offending ECDSA key in /lustre2/home/toliste/.ssh/known_hosts:75
Password authentication is disabled to avoid man-in-the-middle attacks.
Keyboard-interactive authentication is disabled to avoid man-in-the-middle attacks.
@@@@@@@@@@@@@@@@@@@@@@@@@@@@@@@@@@@@@@@@@@@@@@@@@@@@@@@@@@@
@    WARNING: REMOTE HOST IDENTIFICATION HAS CHANGED!     @
@@@@@@@@@@@@@@@@@@@@@@@@@@@@@@@@@@@@@@@@@@@@@@@@@@@@@@@@@@@
IT IS POSSIBLE THAT SOMEONE IS DOING SOMETHING NASTY!
Someone could be eavesdropping on you right now (man-in-the-middle attack)!
It is also possible that a host key has just been changed.
The fingerprint for the ECDSA key sent by the remote host is
SHA256:g4f0bu5h/BuHvHVRaPQeL16zD775+R/jZLDHY4hrQGs.
Please contact your system administrator.
Add correct host key in /lustre2/home/toliste/.ssh/known_hosts to get rid of this message.
Offending ECDSA key in /lustre2/home/toliste/.ssh/known_hosts:56
Password authentication is disabled to avoid man-in-the-middle attacks.
Keyboard-interactive authentication is disabled to avoid man-in-the-middle attacks.
@@@@@@@@@@@@@@@@@@@@@@@@@@@@@@@@@@@@@@@@@@@@@@@@@@@@@@@@@@@
@    WARNING: REMOTE HOST IDENTIFICATION HAS CHANGED!     @
@@@@@@@@@@@@@@@@@@@@@@@@@@@@@@@@@@@@@@@@@@@@@@@@@@@@@@@@@@@
IT IS POSSIBLE THAT SOMEONE IS DOING SOMETHING NASTY!
Someone could be eavesdropping on you right now (man-in-the-middle attack)!
It is also possible that a host key has just been changed.
The fingerprint for the ECDSA key sent by the remote host is
SHA256:KZqoUv2lFt2Xik+CAHlyqXW42VGQuri4bjs+H5gS/9Y.
Please contact your system administrator.
Add correct host key in /lustre2/home/toliste/.ssh/known_hosts to get rid of this message.
Offending ECDSA key in /lustre2/home/toliste/.ssh/known_hosts:45
Password authentication is disabled to avoid man-in-the-middle attacks.
Keyboard-interactive authentication is disabled to avoid man-in-the-middle attacks.
 (Enter /lustre1/prg/gaussian/bin/G16_C01_Linda9.2_SSE4/g16/linda-exe/l502.exel)
 Two-electron integral symmetry not used.
 Closed shell SCF:
 Using DIIS extrapolation, IDIIS=  1040.
 NGot= 11408506880 LenX= 11408246955 LenY= 11408120489
 Requested convergence on RMS density matrix=1.00D-08 within 128 cycles.
 Requested convergence on MAX density matrix=1.00D-06.
 Requested convergence on             energy=1.00D-06.
 No special actions if energy rises.
 Fock matrices will be formed incrementally for  20 cycles.

 Cycle   1  Pass 1  IDiag  1:
 FoFJK:  IHMeth= 1 ICntrl=       0 DoSepK=F KAlg= 0 I1Cent=           0 FoldK=F
 IRaf= 880000000 NMat=       1 IRICut=       1 DoRegI=T DoRafI=F ISym2E= 0 IDoP0=0 IntGTp=1.
 FoFCou: FMM=F IPFlag=           0 FMFlag=      100000 FMFlg1=           0
         NFxFlg=           0 DoJE=F BraDBF=F KetDBF=F FulRan=T
         wScrn=  0.000000 ICntrl=         0 IOpCl=  0 I1Cent=           0 NGrid=           0
         NMat0=    1 NMatS0=      1 NMatT0=    0 NMatD0=    1 NMtDS0=    0 NMtDT0=    0
 Symmetry not used in FoFCou.
 Inv3:  Mode=1 IEnd=    18540588.
 Iteration    1 A*A^-1 deviation from unit magnitude is 1.35D-14 for    490.
 Iteration    1 A*A^-1 deviation from orthogonality  is 4.20D-15 for   2482    829.
 Iteration    1 A^-1*A deviation from unit magnitude is 1.15D-14 for    490.
 Iteration    1 A^-1*A deviation from orthogonality  is 1.73D-15 for   2359   2170.
 E= -911.841518934946    
 DIIS: error= 3.06D-02 at cycle   1 NSaved=   1.
 NSaved= 1 IEnMin= 1 EnMin= -911.841518934946     IErMin= 1 ErrMin= 3.06D-02
 ErrMax= 3.06D-02  0.00D+00 EMaxC= 1.00D-01 BMatC= 3.37D-01 BMatP= 3.37D-01
 IDIUse=3 WtCom= 6.94D-01 WtEn= 3.06D-01
 Coeff-Com:  0.100D+01
 Coeff-En:   0.100D+01
 Coeff:      0.100D+01
 Gap=     0.138 Goal=   None    Shift=    0.000
 GapD=    0.138 DampG=1.000 DampE=0.500 DampFc=0.5000 IDamp=-1.
 Damping current iteration by 5.00D-01
 RMSDP=3.69D-03 MaxDP=9.92D-02              OVMax= 1.59D-01

 Cycle   2  Pass 1  IDiag  1:
 RMSU=  1.78D-03    CP:  9.73D-01
 E= -911.999620585064     Delta-E=       -0.158101650118 Rises=F Damp=T
 DIIS: error= 7.93D-03 at cycle   2 NSaved=   2.
 NSaved= 2 IEnMin= 2 EnMin= -911.999620585064     IErMin= 2 ErrMin= 7.93D-03
 ErrMax= 7.93D-03  0.00D+00 EMaxC= 1.00D-01 BMatC= 3.01D-02 BMatP= 3.37D-01
 IDIUse=3 WtCom= 9.21D-01 WtEn= 7.93D-02
 Coeff-Com: -0.738D-01 0.107D+01
 Coeff-En:   0.000D+00 0.100D+01
 Coeff:     -0.679D-01 0.107D+01
 Gap=     0.163 Goal=   None    Shift=    0.000
 RMSDP=1.34D-03 MaxDP=7.02D-02 DE=-1.58D-01 OVMax= 1.23D-01

 Cycle   3  Pass 1  IDiag  1:
 RMSU=  1.11D-03    CP:  9.52D-01  1.36D+00
 E= -912.144612700121     Delta-E=       -0.144992115057 Rises=F Damp=F
 DIIS: error= 7.71D-03 at cycle   3 NSaved=   3.
 NSaved= 3 IEnMin= 3 EnMin= -912.144612700121     IErMin= 3 ErrMin= 7.71D-03
 ErrMax= 7.71D-03  0.00D+00 EMaxC= 1.00D-01 BMatC= 1.65D-02 BMatP= 3.01D-02
 IDIUse=3 WtCom= 9.23D-01 WtEn= 7.71D-02
 Coeff-Com: -0.106D+00 0.482D+00 0.624D+00
 Coeff-En:   0.000D+00 0.000D+00 0.100D+01
 Coeff:     -0.974D-01 0.445D+00 0.653D+00
 Gap=     0.147 Goal=   None    Shift=    0.000
 RMSDP=5.05D-04 MaxDP=2.58D-02 DE=-1.45D-01 OVMax= 5.31D-02

 Cycle   4  Pass 1  IDiag  1:
 RMSU=  3.34D-04    CP:  9.55D-01  1.41D+00  6.70D-01
 E= -912.158477855957     Delta-E=       -0.013865155835 Rises=F Damp=F
 DIIS: error= 3.77D-03 at cycle   4 NSaved=   4.
 NSaved= 4 IEnMin= 4 EnMin= -912.158477855957     IErMin= 4 ErrMin= 3.77D-03
 ErrMax= 3.77D-03  0.00D+00 EMaxC= 1.00D-01 BMatC= 2.99D-03 BMatP= 1.65D-02
 IDIUse=3 WtCom= 9.62D-01 WtEn= 3.77D-02
 Coeff-Com: -0.322D-01 0.888D-01 0.336D+00 0.608D+00
 Coeff-En:   0.000D+00 0.000D+00 0.146D+00 0.854D+00
 Coeff:     -0.310D-01 0.855D-01 0.329D+00 0.617D+00
 Gap=     0.150 Goal=   None    Shift=    0.000
 RMSDP=1.68D-04 MaxDP=8.56D-03 DE=-1.39D-02 OVMax= 1.90D-02

 Cycle   5  Pass 1  IDiag  1:
 RMSU=  6.65D-05    CP:  9.54D-01  1.40D+00  7.66D-01  6.73D-01
 E= -912.161511154353     Delta-E=       -0.003033298397 Rises=F Damp=F
 DIIS: error= 3.65D-04 at cycle   5 NSaved=   5.
 NSaved= 5 IEnMin= 5 EnMin= -912.161511154353     IErMin= 5 ErrMin= 3.65D-04
 ErrMax= 3.65D-04  0.00D+00 EMaxC= 1.00D-01 BMatC= 9.17D-05 BMatP= 2.99D-03
 IDIUse=3 WtCom= 9.96D-01 WtEn= 3.65D-03
 Coeff-Com: -0.693D-02 0.100D-01 0.976D-01 0.251D+00 0.648D+00
 Coeff-En:   0.000D+00 0.000D+00 0.000D+00 0.000D+00 0.100D+01
 Coeff:     -0.690D-02 0.998D-02 0.972D-01 0.251D+00 0.649D+00
 Gap=     0.150 Goal=   None    Shift=    0.000
 RMSDP=2.86D-05 MaxDP=1.70D-03 DE=-3.03D-03 OVMax= 2.90D-03

 Cycle   6  Pass 1  IDiag  1:
 RMSU=  2.02D-05    CP:  9.54D-01  1.41D+00  7.68D-01  7.06D-01  7.76D-01
 E= -912.161594216689     Delta-E=       -0.000083062335 Rises=F Damp=F
 DIIS: error= 6.74D-05 at cycle   6 NSaved=   6.
 NSaved= 6 IEnMin= 6 EnMin= -912.161594216689     IErMin= 6 ErrMin= 6.74D-05
 ErrMax= 6.74D-05  0.00D+00 EMaxC= 1.00D-01 BMatC= 5.04D-06 BMatP= 9.17D-05
 IDIUse=1 WtCom= 1.00D+00 WtEn= 0.00D+00
 Coeff-Com: -0.843D-03-0.102D-02 0.168D-01 0.572D-01 0.248D+00 0.680D+00
 Coeff:     -0.843D-03-0.102D-02 0.168D-01 0.572D-01 0.248D+00 0.680D+00
 Gap=     0.150 Goal=   None    Shift=    0.000
 RMSDP=7.13D-06 MaxDP=2.89D-04 DE=-8.31D-05 OVMax= 5.85D-04

 Cycle   7  Pass 1  IDiag  1:
 RMSU=  5.67D-06    CP:  9.54D-01  1.41D+00  7.68D-01  7.10D-01  8.30D-01
                    CP:  9.03D-01
 E= -912.161599436703     Delta-E=       -0.000005220014 Rises=F Damp=F
 DIIS: error= 2.24D-05 at cycle   7 NSaved=   7.
 NSaved= 7 IEnMin= 7 EnMin= -912.161599436703     IErMin= 7 ErrMin= 2.24D-05
 ErrMax= 2.24D-05  0.00D+00 EMaxC= 1.00D-01 BMatC= 2.52D-07 BMatP= 5.04D-06
 IDIUse=1 WtCom= 1.00D+00 WtEn= 0.00D+00
 Coeff-Com:  0.565D-03-0.139D-02-0.644D-02-0.136D-01-0.817D-02 0.118D+00
 Coeff-Com:  0.911D+00
 Coeff:      0.565D-03-0.139D-02-0.644D-02-0.136D-01-0.817D-02 0.118D+00
 Coeff:      0.911D+00
 Gap=     0.150 Goal=   None    Shift=    0.000
 RMSDP=3.26D-06 MaxDP=9.43D-05 DE=-5.22D-06 OVMax= 4.00D-04

 Cycle   8  Pass 1  IDiag  1:
 RMSU=  1.98D-06    CP:  9.54D-01  1.41D+00  7.68D-01  7.13D-01  8.43D-01
                    CP:  1.01D+00  1.08D+00
 E= -912.161599832210     Delta-E=       -0.000000395507 Rises=F Damp=F
 DIIS: error= 1.94D-05 at cycle   8 NSaved=   8.
 NSaved= 8 IEnMin= 8 EnMin= -912.161599832210     IErMin= 8 ErrMin= 1.94D-05
 ErrMax= 1.94D-05  0.00D+00 EMaxC= 1.00D-01 BMatC= 1.12D-07 BMatP= 2.52D-07
 IDIUse=1 WtCom= 1.00D+00 WtEn= 0.00D+00
 Coeff-Com:  0.392D-03-0.607D-03-0.505D-02-0.131D-01-0.303D-01-0.195D-01
 Coeff-Com:  0.471D+00 0.597D+00
 Coeff:      0.392D-03-0.607D-03-0.505D-02-0.131D-01-0.303D-01-0.195D-01
 Coeff:      0.471D+00 0.597D+00
 Gap=     0.150 Goal=   None    Shift=    0.000
 RMSDP=1.23D-06 MaxDP=5.09D-05 DE=-3.96D-07 OVMax= 1.42D-04

 Cycle   9  Pass 1  IDiag  1:
 RMSU=  7.88D-07    CP:  9.54D-01  1.41D+00  7.69D-01  7.13D-01  8.51D-01
                    CP:  1.02D+00  1.17D+00  7.49D-01
 E= -912.161599961569     Delta-E=       -0.000000129359 Rises=F Damp=F
 DIIS: error= 3.41D-06 at cycle   9 NSaved=   9.
 NSaved= 9 IEnMin= 9 EnMin= -912.161599961569     IErMin= 9 ErrMin= 3.41D-06
 ErrMax= 3.41D-06  0.00D+00 EMaxC= 1.00D-01 BMatC= 4.79D-09 BMatP= 1.12D-07
 IDIUse=1 WtCom= 1.00D+00 WtEn= 0.00D+00
 Coeff-Com:  0.627D-04-0.466D-04-0.856D-03-0.259D-02-0.775D-02-0.179D-01
 Coeff-Com:  0.538D-01 0.178D+00 0.798D+00
 Coeff:      0.627D-04-0.466D-04-0.856D-03-0.259D-02-0.775D-02-0.179D-01
 Coeff:      0.538D-01 0.178D+00 0.798D+00
 Gap=     0.150 Goal=   None    Shift=    0.000
 RMSDP=4.00D-07 MaxDP=1.34D-05 DE=-1.29D-07 OVMax= 5.39D-05

 Cycle  10  Pass 1  IDiag  1:
 RMSU=  2.65D-07    CP:  9.54D-01  1.41D+00  7.69D-01  7.13D-01  8.51D-01
                    CP:  1.03D+00  1.20D+00  8.47D-01  9.75D-01
 E= -912.161599969604     Delta-E=       -0.000000008035 Rises=F Damp=F
 DIIS: error= 1.67D-06 at cycle  10 NSaved=  10.
 NSaved=10 IEnMin=10 EnMin= -912.161599969604     IErMin=10 ErrMin= 1.67D-06
 ErrMax= 1.67D-06  0.00D+00 EMaxC= 1.00D-01 BMatC= 1.29D-09 BMatP= 4.79D-09
 IDIUse=1 WtCom= 1.00D+00 WtEn= 0.00D+00
 Coeff-Com: -0.246D-04 0.605D-04 0.299D-03 0.608D-03 0.516D-03-0.654D-02
 Coeff-Com: -0.429D-01-0.116D-01 0.361D+00 0.698D+00
 Coeff:     -0.246D-04 0.605D-04 0.299D-03 0.608D-03 0.516D-03-0.654D-02
 Coeff:     -0.429D-01-0.116D-01 0.361D+00 0.698D+00
 Gap=     0.150 Goal=   None    Shift=    0.000
 RMSDP=1.61D-07 MaxDP=6.00D-06 DE=-8.04D-09 OVMax= 1.86D-05

 Cycle  11  Pass 1  IDiag  1:
 RMSU=  9.90D-08    CP:  9.54D-01  1.41D+00  7.69D-01  7.13D-01  8.52D-01
                    CP:  1.03D+00  1.21D+00  8.71D-01  1.10D+00  9.56D-01
 E= -912.161599971360     Delta-E=       -0.000000001756 Rises=F Damp=F
 DIIS: error= 4.11D-07 at cycle  11 NSaved=  11.
 NSaved=11 IEnMin=11 EnMin= -912.161599971360     IErMin=11 ErrMin= 4.11D-07
 ErrMax= 4.11D-07  0.00D+00 EMaxC= 1.00D-01 BMatC= 1.28D-10 BMatP= 1.29D-09
 IDIUse=1 WtCom= 1.00D+00 WtEn= 0.00D+00
 Coeff-Com: -0.201D-04 0.318D-04 0.257D-03 0.664D-03 0.149D-02 0.141D-03
 Coeff-Com: -0.257D-01-0.357D-01 0.369D-01 0.279D+00 0.743D+00
 Coeff:     -0.201D-04 0.318D-04 0.257D-03 0.664D-03 0.149D-02 0.141D-03
 Coeff:     -0.257D-01-0.357D-01 0.369D-01 0.279D+00 0.743D+00
 Gap=     0.150 Goal=   None    Shift=    0.000
 RMSDP=6.20D-08 MaxDP=1.71D-06 DE=-1.76D-09 OVMax= 1.11D-05

 Cycle  12  Pass 1  IDiag  1:
 RMSU=  3.51D-08    CP:  9.54D-01  1.41D+00  7.68D-01  7.13D-01  8.52D-01
                    CP:  1.03D+00  1.21D+00  8.77D-01  1.14D+00  1.07D+00
                    CP:  1.01D+00
 E= -912.161599971555     Delta-E=       -0.000000000195 Rises=F Damp=F
 DIIS: error= 1.38D-07 at cycle  12 NSaved=  12.
 NSaved=12 IEnMin=12 EnMin= -912.161599971555     IErMin=12 ErrMin= 1.38D-07
 ErrMax= 1.38D-07  0.00D+00 EMaxC= 1.00D-01 BMatC= 7.68D-12 BMatP= 1.28D-10
 IDIUse=1 WtCom= 1.00D+00 WtEn= 0.00D+00
 Coeff-Com: -0.153D-05 0.972D-06 0.213D-04 0.627D-04 0.238D-03 0.638D-03
 Coeff-Com: -0.139D-03-0.582D-02-0.179D-01-0.747D-02 0.127D+00 0.903D+00
 Coeff:     -0.153D-05 0.972D-06 0.213D-04 0.627D-04 0.238D-03 0.638D-03
 Coeff:     -0.139D-03-0.582D-02-0.179D-01-0.747D-02 0.127D+00 0.903D+00
 Gap=     0.150 Goal=   None    Shift=    0.000
 RMSDP=2.12D-08 MaxDP=6.21D-07 DE=-1.95D-10 OVMax= 4.60D-06

 Cycle  13  Pass 1  IDiag  1:
 RMSU=  1.19D-08    CP:  9.54D-01  1.41D+00  7.68D-01  7.13D-01  8.52D-01
                    CP:  1.03D+00  1.21D+00  8.78D-01  1.15D+00  1.10D+00
                    CP:  1.13D+00  1.17D+00
 E= -912.161599971541     Delta-E=        0.000000000014 Rises=F Damp=F
 DIIS: error= 8.48D-08 at cycle  13 NSaved=  13.
 NSaved=13 IEnMin=12 EnMin= -912.161599971555     IErMin=13 ErrMin= 8.48D-08
 ErrMax= 8.48D-08  0.00D+00 EMaxC= 1.00D-01 BMatC= 2.03D-12 BMatP= 7.68D-12
 IDIUse=1 WtCom= 1.00D+00 WtEn= 0.00D+00
 Coeff-Com:  0.198D-05-0.367D-05-0.245D-04-0.644D-04-0.969D-04 0.213D-03
 Coeff-Com:  0.299D-02 0.156D-02-0.123D-01-0.431D-01-0.562D-01 0.328D+00
 Coeff-Com:  0.779D+00
 Coeff:      0.198D-05-0.367D-05-0.245D-04-0.644D-04-0.969D-04 0.213D-03
 Coeff:      0.299D-02 0.156D-02-0.123D-01-0.431D-01-0.562D-01 0.328D+00
 Coeff:      0.779D+00
 Gap=     0.150 Goal=   None    Shift=    0.000
 RMSDP=1.05D-08 MaxDP=3.76D-07 DE= 1.36D-11 OVMax= 2.55D-06

 Cycle  14  Pass 1  IDiag  1:
 RMSU=  5.49D-09    CP:  9.54D-01  1.41D+00  7.68D-01  7.13D-01  8.52D-01
                    CP:  1.03D+00  1.21D+00  8.79D-01  1.15D+00  1.11D+00
                    CP:  1.17D+00  1.34D+00  1.13D+00
 E= -912.161599971612     Delta-E=       -0.000000000071 Rises=F Damp=F
 DIIS: error= 3.80D-08 at cycle  14 NSaved=  14.
 NSaved=14 IEnMin=14 EnMin= -912.161599971612     IErMin=14 ErrMin= 3.80D-08
 ErrMax= 3.80D-08  0.00D+00 EMaxC= 1.00D-01 BMatC= 4.40D-13 BMatP= 2.03D-12
 IDIUse=1 WtCom= 1.00D+00 WtEn= 0.00D+00
 Coeff-Com:  0.758D-06-0.107D-05-0.970D-05-0.296D-04-0.622D-04-0.638D-04
 Coeff-Com:  0.772D-03 0.136D-02 0.203D-02-0.883D-02-0.388D-01-0.117D+00
 Coeff-Com:  0.279D+00 0.882D+00
 Coeff:      0.758D-06-0.107D-05-0.970D-05-0.296D-04-0.622D-04-0.638D-04
 Coeff:      0.772D-03 0.136D-02 0.203D-02-0.883D-02-0.388D-01-0.117D+00
 Coeff:      0.279D+00 0.882D+00
 Gap=     0.150 Goal=   None    Shift=    0.000
 RMSDP=4.85D-09 MaxDP=1.49D-07 DE=-7.09D-11 OVMax= 1.12D-06

 Error on total polarization charges =  0.01102
 SCF Done:  E(RM062X) =  -912.161599972     A.U. after   14 cycles
            NFock= 14  Conv=0.49D-08     -V/T= 2.0062
 KE= 9.065149951688D+02 PE=-5.076406771891D+03 EE= 1.784512558143D+03
 Leave Link  502 at Tue Feb  1 12:36:24 2022, MaxMem= 11408506880 cpu:             923.6 elap:              81.7
 (Enter /lustre1/prg/gaussian/bin/G16_C01_Linda9.2_SSE4/g16/l801.exe)
 DoSCS=F DFT=T ScalE2(SS,OS)=  1.000000  1.000000
 ExpMin= 9.54D-02 ExpMax= 1.47D+04 ExpMxC= 5.03D+02 IAcc=3 IRadAn=         5 AccDes= 0.00D+00
 HarFok:  IExCor=  205 AccDes= 0.00D+00 IRadAn=         5 IDoV=-2 UseB2=F ITyADJ=14
 ICtDFT= 12500011 ScaDFX=  1.000000  1.000000  1.000000  1.000000
 Largest valence mixing into a core orbital is  7.93D-05
 Largest core mixing into a valence orbital is  4.82D-05
 Range of M.O.s used for correlation:    21   335
 NBasis=   335 NAE=    69 NBE=    69 NFC=    20 NFV=     0
 NROrb=    315 NOA=    49 NOB=    49 NVA=   266 NVB=   266

 **** Warning!!: The largest alpha MO coefficient is  0.13489656D+02

 Leave Link  801 at Tue Feb  1 12:36:25 2022, MaxMem= 11408506880 cpu:               2.5 elap:               0.2
@@@@@@@@@@@@@@@@@@@@@@@@@@@@@@@@@@@@@@@@@@@@@@@@@@@@@@@@@@@
@    WARNING: REMOTE HOST IDENTIFICATION HAS CHANGED!     @
@@@@@@@@@@@@@@@@@@@@@@@@@@@@@@@@@@@@@@@@@@@@@@@@@@@@@@@@@@@
IT IS POSSIBLE THAT SOMEONE IS DOING SOMETHING NASTY!
Someone could be eavesdropping on you right now (man-in-the-middle attack)!
It is also possible that a host key has just been changed.
The fingerprint for the ECDSA key sent by the remote host is
SHA256:KZqoUv2lFt2Xik+CAHlyqXW42VGQuri4bjs+H5gS/9Y.
Please contact your system administrator.
Add correct host key in /lustre2/home/toliste/.ssh/known_hosts to get rid of this message.
Offending ECDSA key in /lustre2/home/toliste/.ssh/known_hosts:45
Password authentication is disabled to avoid man-in-the-middle attacks.
Keyboard-interactive authentication is disabled to avoid man-in-the-middle attacks.
@@@@@@@@@@@@@@@@@@@@@@@@@@@@@@@@@@@@@@@@@@@@@@@@@@@@@@@@@@@
@    WARNING: REMOTE HOST IDENTIFICATION HAS CHANGED!     @
@@@@@@@@@@@@@@@@@@@@@@@@@@@@@@@@@@@@@@@@@@@@@@@@@@@@@@@@@@@
IT IS POSSIBLE THAT SOMEONE IS DOING SOMETHING NASTY!
Someone could be eavesdropping on you right now (man-in-the-middle attack)!
It is also possible that a host key has just been changed.
The fingerprint for the ECDSA key sent by the remote host is
SHA256:GrKekbUI0EXjIn2+8KWdVGCxz/8JpOOEF1MyBm+WVPs.
Please contact your system administrator.
Add correct host key in /lustre2/home/toliste/.ssh/known_hosts to get rid of this message.
Offending ECDSA key in /lustre2/home/toliste/.ssh/known_hosts:76
Password authentication is disabled to avoid man-in-the-middle attacks.
Keyboard-interactive authentication is disabled to avoid man-in-the-middle attacks.
@@@@@@@@@@@@@@@@@@@@@@@@@@@@@@@@@@@@@@@@@@@@@@@@@@@@@@@@@@@
@    WARNING: REMOTE HOST IDENTIFICATION HAS CHANGED!     @
@@@@@@@@@@@@@@@@@@@@@@@@@@@@@@@@@@@@@@@@@@@@@@@@@@@@@@@@@@@
IT IS POSSIBLE THAT SOMEONE IS DOING SOMETHING NASTY!
Someone could be eavesdropping on you right now (man-in-the-middle attack)!
It is also possible that a host key has just been changed.
The fingerprint for the ECDSA key sent by the remote host is
SHA256:Uz282wHl28wBm97/baJLdIpXIsVd0LwF1Owmw5BVe2Y.
Please contact your system administrator.
Add correct host key in /lustre2/home/toliste/.ssh/known_hosts to get rid of this message.
Offending ECDSA key in /lustre2/home/toliste/.ssh/known_hosts:29
Password authentication is disabled to avoid man-in-the-middle attacks.
Keyboard-interactive authentication is disabled to avoid man-in-the-middle attacks.
@@@@@@@@@@@@@@@@@@@@@@@@@@@@@@@@@@@@@@@@@@@@@@@@@@@@@@@@@@@
@    WARNING: REMOTE HOST IDENTIFICATION HAS CHANGED!     @
@@@@@@@@@@@@@@@@@@@@@@@@@@@@@@@@@@@@@@@@@@@@@@@@@@@@@@@@@@@
IT IS POSSIBLE THAT SOMEONE IS DOING SOMETHING NASTY!
Someone could be eavesdropping on you right now (man-in-the-middle attack)!
It is also possible that a host key has just been changed.
The fingerprint for the ECDSA key sent by the remote host is
SHA256:Ki/B3btCxo943N1v5zDKOfUYHONPxVQ2BEdbCqI5VQc.
Please contact your system administrator.
Add correct host key in /lustre2/home/toliste/.ssh/known_hosts to get rid of this message.
Offending ECDSA key in /lustre2/home/toliste/.ssh/known_hosts:75
Password authentication is disabled to avoid man-in-the-middle attacks.
Keyboard-interactive authentication is disabled to avoid man-in-the-middle attacks.
@@@@@@@@@@@@@@@@@@@@@@@@@@@@@@@@@@@@@@@@@@@@@@@@@@@@@@@@@@@
@    WARNING: REMOTE HOST IDENTIFICATION HAS CHANGED!     @
@@@@@@@@@@@@@@@@@@@@@@@@@@@@@@@@@@@@@@@@@@@@@@@@@@@@@@@@@@@
IT IS POSSIBLE THAT SOMEONE IS DOING SOMETHING NASTY!
Someone could be eavesdropping on you right now (man-in-the-middle attack)!
It is also possible that a host key has just been changed.
The fingerprint for the ECDSA key sent by the remote host is
SHA256:g4f0bu5h/BuHvHVRaPQeL16zD775+R/jZLDHY4hrQGs.
Please contact your system administrator.
Add correct host key in /lustre2/home/toliste/.ssh/known_hosts to get rid of this message.
Offending ECDSA key in /lustre2/home/toliste/.ssh/known_hosts:56
Password authentication is disabled to avoid man-in-the-middle attacks.
Keyboard-interactive authentication is disabled to avoid man-in-the-middle attacks.
@@@@@@@@@@@@@@@@@@@@@@@@@@@@@@@@@@@@@@@@@@@@@@@@@@@@@@@@@@@
@    WARNING: REMOTE HOST IDENTIFICATION HAS CHANGED!     @
@@@@@@@@@@@@@@@@@@@@@@@@@@@@@@@@@@@@@@@@@@@@@@@@@@@@@@@@@@@
IT IS POSSIBLE THAT SOMEONE IS DOING SOMETHING NASTY!
Someone could be eavesdropping on you right now (man-in-the-middle attack)!
It is also possible that a host key has just been changed.
The fingerprint for the ECDSA key sent by the remote host is
SHA256:nUIzJjT4Fam54Ejlek1Nrbwz39jnyir/zslU9lYj5R0.
Please contact your system administrator.
Add correct host key in /lustre2/home/toliste/.ssh/known_hosts to get rid of this message.
Offending ECDSA key in /lustre2/home/toliste/.ssh/known_hosts:185
Password authentication is disabled to avoid man-in-the-middle attacks.
Keyboard-interactive authentication is disabled to avoid man-in-the-middle attacks.
 (Enter /lustre1/prg/gaussian/bin/G16_C01_Linda9.2_SSE4/g16/linda-exe/l914.exel)
 RHF ground state
 Keep R1, R2, and R3 ints in memory in canonical form, NReq=4923275813.
 FoFCou: FMM=F IPFlag=           0 FMFlag=           0 FMFlg1=           0
         NFxFlg=           0 DoJE=F BraDBF=F KetDBF=F FulRan=T
         wScrn=  0.000000 ICntrl=       600 IOpCl=  0 I1Cent=           0 NGrid=           0
         NMat0=    1 NMatS0=  56280 NMatT0=    0 NMatD0=    1 NMtDS0=    0 NMtDT0=    0
 Symmetry not used in FoFCou.
 Two-electron integral symmetry not used.
 MDV= 11408506880 DFT=T DoStab=F Mixed=T DoRPA=T DoScal=F NonHer=T
 NEqPCM:  Using equilibrium solvation (IEInf=0, Eps=  20.4930, EpsInf=   1.8463)
 Making orbital integer symmetry assigments:
    24 initial guesses have been made.
 Convergence on wavefunction:    0.000001000000000
 Davidson Disk Diagonalization:  ConvIn= 1.00D-06 SkipCon=T Conv= 1.00D-06.
 Max sub-space:  2000 roots to seek:    24 dimension of matrix:        26068
 Iteration     1 Dimension    24 NMult     0 NNew     24
 CISAX will form    24 AO SS matrices at one time.
 NMat=    24 NSing=    24 JSym2X= 0.
 New state      2 was old state      3
 New state      3 was old state      2
 Excitation Energies [eV] at current iteration:
 Root      1 :     2.339262655813356
 Root      2 :     3.544080738191931
 Root      3 :     3.547553311082056
 Root      4 :     3.995865037912002
 Root      5 :     4.118364157470036
 Root      6 :     5.515302469505408
 Root      7 :     5.599255250891214
 Root      8 :     5.716056206445566
 Root      9 :     5.765564004259061
 Root     10 :     6.080423124459898
 Root     11 :     6.199671928499020
 Root     12 :     6.381882526812229
 Root     13 :     6.804657322115673
 Root     14 :     6.917309530887542
 Root     15 :     6.965096572516932
 Root     16 :     7.070572497058323
 Root     17 :     7.125740163249080
 Root     18 :     7.290351575556610
 Root     19 :     7.335903400039083
 Root     20 :     7.481479201030071
 Root     21 :     7.510604456057756
 Root     22 :     7.708273264045446
 Root     23 :     7.710657423421091
 Root     24 :     8.063738242860587
 Iteration     2 Dimension    36 NMult    24 NNew     12
 CISAX will form    12 AO SS matrices at one time.
 NMat=    12 NSing=    12 JSym2X= 0.
 Root      1 not converged, maximum delta is    0.049727994747974
 New state      2 was old state      3
 Root      2 not converged, maximum delta is    0.032648456632304
 New state      3 was old state      2
 Root      3 not converged, maximum delta is    0.038585489621531
 Root      4 not converged, maximum delta is    0.043722051734955
 Root      5 not converged, maximum delta is    0.053126073372278
 Root      6 not converged, maximum delta is    0.319212814448686
 Excitation Energies [eV] at current iteration:
 Root      1 :     1.921577809155779   Change is   -0.417684846657577
 Root      2 :     3.127041681404837   Change is   -0.420511629677219
 Root      3 :     3.294829618261709   Change is   -0.249251119930223
 Root      4 :     3.732668683682757   Change is   -0.263196354229245
 Root      5 :     3.894491464364038   Change is   -0.223872693105998
 Root      6 :     5.422294426340465   Change is   -0.093008043164943
 Iteration     3 Dimension    48 NMult    36 NNew     12
 CISAX will form    12 AO SS matrices at one time.
 NMat=    12 NSing=    12 JSym2X= 0.
 Root      1 not converged, maximum delta is    0.011728526288801
 Root      2 not converged, maximum delta is    0.013829002937140
 Root      3 not converged, maximum delta is    0.007532378331942
 Root      4 not converged, maximum delta is    0.008747031779306
 Root      5 not converged, maximum delta is    0.021323916604037
 Root      6 not converged, maximum delta is    0.386723600555391
 Excitation Energies [eV] at current iteration:
 Root      1 :     1.900897700050462   Change is   -0.020680109105317
 Root      2 :     3.108107280950268   Change is   -0.018934400454569
[...]
    13  H   -0.003200   0.000202  -0.000039  -0.000006  -0.000001  -0.000000
    14  C    0.002789  -0.000178   0.000018  -0.000001   0.000003   0.000000
    15  H    0.000179   0.000002  -0.000000  -0.000000   0.000000  -0.000000
    16  C    0.004276   0.000495   0.000031   0.000003  -0.000034  -0.000000
    17  H    0.000232  -0.000010  -0.000001  -0.000000  -0.000001   0.000000
    18  C   -0.061441  -0.005616   0.000477   0.000044  -0.001369   0.000005
    19  F    0.475445  -0.026735  -0.002612  -0.000155  -0.000077   0.000001
    20  F    0.448302  -0.027193   0.008129   0.004006   0.000544   0.000002
    21  C    0.002971   0.003668  -0.000084   0.000016   0.000796  -0.000006
    22  C   -0.000139   0.000045  -0.000039  -0.000002  -0.000206   0.000011
    23  H    0.000004   0.000009  -0.000114   0.000001   0.000923  -0.000000
    24  C   -0.000006  -0.000005   0.000000  -0.000000  -0.000021   0.000000
    25  H    0.000000   0.000000  -0.000000  -0.000000  -0.000001   0.000000
    26  C   -0.000000   0.000000   0.000000   0.000000   0.000000  -0.000000
    27  C   -0.000006   0.000000  -0.000000  -0.000000  -0.000000   0.000000
    28  H    0.000000  -0.000000   0.000000  -0.000000   0.000000  -0.000000
    29  C   -0.000141  -0.000073   0.000006   0.000000   0.000015  -0.000000
    30  H    0.000003  -0.000002   0.000000   0.000000   0.000000  -0.000000
    31  H    0.000000   0.000000  -0.000000   0.000000   0.000000  -0.000000
               7          8          9         10         11         12
     1  B    0.004256   0.000231  -0.061357  -0.013769   0.340259  -0.032728
     2  N   -0.079039   0.003747   0.431971  -0.046863  -0.037475  -0.000220
     3  C   -0.053603   0.009039  -0.136188   0.008428  -0.000223  -0.000066
     4  H    0.007062  -0.000074   0.002996  -0.000631   0.000202  -0.000039
     5  C    0.531710  -0.040085  -0.053138   0.006889  -0.000177   0.000018
     6  H   -0.039100  -0.005925   0.008875  -0.000238   0.000002  -0.000000
     7  C    4.898776   0.419800   0.458214  -0.091496   0.000493   0.000031
     8  H    0.419800   0.631314  -0.043209  -0.006071  -0.000010  -0.000001
     9  C    0.458214  -0.043209   5.071068   0.296490  -0.005623   0.000480
    10  C   -0.091496  -0.006071   0.296490   5.522998  -0.046851   0.008421
    11  N    0.000493  -0.000010  -0.005623  -0.046851   6.192812   0.489736
    12  C    0.000031  -0.000001   0.000480   0.008421   0.489736   4.780034
    13  H    0.000003  -0.000000   0.000044  -0.000631  -0.025953   0.405908
    14  C   -0.000034  -0.000001  -0.001363   0.006886  -0.053727   0.462014
    15  H   -0.000000   0.000000   0.000005  -0.000238   0.003661  -0.041717
    16  C    0.000234   0.000034   0.006123  -0.091444  -0.079007  -0.053593
    17  H    0.000034   0.000002   0.000130  -0.006092   0.003754   0.009042
    18  C    0.006107   0.000125  -0.059838   0.296362   0.431928  -0.136197
    19  F    0.000073   0.000001  -0.001234   0.002607  -0.026733  -0.002610
    20  F   -0.000109   0.000001  -0.002001   0.000341  -0.027167   0.008107
    21  C   -0.014330  -0.001076  -0.040347   0.375189   0.003658  -0.000085
    22  C   -0.003991   0.002704  -0.023695  -0.083764  -0.000073   0.000006
    23  H    0.003752  -0.000614   0.008109  -0.026663  -0.000002   0.000000
    24  C    0.000637   0.000722   0.000335   0.010828   0.000000  -0.000000
    25  H    0.000013   0.000025   0.000041  -0.000430  -0.000000   0.000000
    26  C   -0.000014  -0.000028  -0.000037   0.000611   0.000000   0.000000
    27  C    0.000009  -0.000006  -0.000321   0.010817  -0.000005   0.000000
    28  H   -0.000000  -0.000000   0.000004  -0.000431   0.000000  -0.000000
    29  C   -0.000097  -0.000117   0.013123  -0.083691   0.000045  -0.000039
    30  H   -0.000029  -0.000002   0.000612  -0.026626   0.000003  -0.000115
    31  H    0.000000   0.000000  -0.000000   0.000011   0.000000  -0.000000
              13         14         15         16         17         18
     1  B   -0.003200   0.002789   0.000179   0.004276   0.000232  -0.061441
     2  N    0.000202  -0.000178   0.000002   0.000495  -0.000010  -0.005616
     3  C   -0.000039   0.000018  -0.000000   0.000031  -0.000001   0.000477
     4  H   -0.000006  -0.000001  -0.000000   0.000003  -0.000000   0.000044
     5  C   -0.000001   0.000003   0.000000  -0.000034  -0.000001  -0.001369
     6  H   -0.000000   0.000000  -0.000000  -0.000000   0.000000   0.000005
     7  C    0.000003  -0.000034  -0.000000   0.000234   0.000034   0.006107
     8  H   -0.000000  -0.000001   0.000000   0.000034   0.000002   0.000125
     9  C    0.000044  -0.001363   0.000005   0.006123   0.000130  -0.059838
    10  C   -0.000631   0.006886  -0.000238  -0.091444  -0.006092   0.296362
    11  N   -0.025953  -0.053727   0.003661  -0.079007   0.003754   0.431928
    12  C    0.405908   0.462014  -0.041717  -0.053593   0.009042  -0.136197
    13  H    0.593486  -0.039447  -0.003378   0.007059  -0.000074   0.003003
    14  C   -0.039447   4.791724   0.414426   0.531772  -0.040057  -0.053169
    15  H   -0.003378   0.414426   0.630359  -0.039110  -0.005918   0.008872
    16  C    0.007059   0.531772  -0.039110   4.898593   0.419806   0.458251
    17  H   -0.000074  -0.040057  -0.005918   0.419806   0.631300  -0.043214
    18  C    0.003003  -0.053169   0.008872   0.458251  -0.043214   5.071790
    19  F   -0.000155  -0.000077   0.000001   0.000073   0.000001  -0.001252
    20  F    0.003990   0.000542   0.000002  -0.000109   0.000001  -0.002002
    21  C    0.000016   0.000798  -0.000006  -0.014301  -0.001062  -0.040348
    22  C    0.000000   0.000014  -0.000000  -0.000095  -0.000118   0.013127
    23  H    0.000000   0.000000  -0.000000  -0.000029  -0.000003   0.000614
    24  C   -0.000000  -0.000000   0.000000   0.000009  -0.000006  -0.000320
    25  H   -0.000000   0.000000  -0.000000  -0.000000  -0.000000   0.000004
    26  C    0.000000   0.000000  -0.000000  -0.000014  -0.000028  -0.000037
    27  C   -0.000000  -0.000021   0.000000   0.000633   0.000716   0.000342
    28  H   -0.000000  -0.000001   0.000000   0.000013   0.000024   0.000041
    29  C   -0.000002  -0.000207   0.000011  -0.004016   0.002766  -0.023834
    30  H    0.000001   0.000925  -0.000001   0.003811  -0.000596   0.008016
    31  H    0.000000   0.000000  -0.000000   0.000000   0.000000  -0.000000
              19         20         21         22         23         24
     1  B    0.475445   0.448302   0.002971  -0.000139   0.000004  -0.000006
     2  N   -0.026735  -0.027193   0.003668   0.000045   0.000009  -0.000005
     3  C   -0.002612   0.008129  -0.000084  -0.000039  -0.000114   0.000000
     4  H   -0.000155   0.004006   0.000016  -0.000002   0.000001  -0.000000
     5  C   -0.000077   0.000544   0.000796  -0.000206   0.000923  -0.000021
     6  H    0.000001   0.000002  -0.000006   0.000011  -0.000000   0.000000
     7  C    0.000073  -0.000109  -0.014330  -0.003991   0.003752   0.000637
     8  H    0.000001   0.000001  -0.001076   0.002704  -0.000614   0.000722
     9  C   -0.001234  -0.002001  -0.040347  -0.023695   0.008109   0.000335
    10  C    0.002607   0.000341   0.375189  -0.083764  -0.026663   0.010828
    11  N   -0.026733  -0.027167   0.003658  -0.000073  -0.000002   0.000000
    12  C   -0.002610   0.008107  -0.000085   0.000006   0.000000  -0.000000
    13  H   -0.000155   0.003990   0.000016   0.000000   0.000000  -0.000000
    14  C   -0.000077   0.000542   0.000798   0.000014   0.000000  -0.000000
    15  H    0.000001   0.000002  -0.000006  -0.000000  -0.000000   0.000000
    16  C    0.000073  -0.000109  -0.014301  -0.000095  -0.000029   0.000009
    17  H    0.000001   0.000001  -0.001062  -0.000118  -0.000003  -0.000006
    18  C   -0.001252  -0.002002  -0.040348   0.013127   0.000614  -0.000320
    19  F    8.828086  -0.016456   0.000167  -0.000004   0.000002  -0.000000
    20  F   -0.016456   8.833341  -0.000001  -0.000000  -0.000000   0.000000
    21  C    0.000167  -0.000001   4.854734   0.476874  -0.039953   0.004499
    22  C   -0.000004  -0.000000   0.476874   4.914181   0.395434   0.518845
    23  H    0.000002  -0.000000  -0.039953   0.395434   0.680411  -0.038782
    24  C   -0.000000   0.000000   0.004499   0.518845  -0.038782   4.705273
    25  H   -0.000000  -0.000000   0.008873  -0.031195  -0.013792   0.395095
    26  C    0.000000  -0.000000  -0.065955  -0.020663   0.009393   0.503696
    27  C   -0.000000   0.000000   0.004460  -0.068641  -0.001016  -0.005064
    28  H   -0.000000  -0.000000   0.008858   0.000230   0.000056   0.008221
    29  C   -0.000004  -0.000000   0.476939  -0.061789   0.009945  -0.068665
    30  H    0.000002  -0.000000  -0.039844   0.009947  -0.000076  -0.001012
    31  H    0.000000  -0.000000  -0.000446   0.009642  -0.000195  -0.043463
              25         26         27         28         29         30
     1  B    0.000000  -0.000000  -0.000006   0.000000  -0.000141   0.000003
     2  N    0.000000   0.000000   0.000000  -0.000000  -0.000073  -0.000002
     3  C   -0.000000   0.000000  -0.000000   0.000000   0.000006   0.000000
     4  H   -0.000000   0.000000  -0.000000  -0.000000   0.000000   0.000000
     5  C   -0.000001   0.000000  -0.000000   0.000000   0.000015   0.000000
     6  H    0.000000  -0.000000   0.000000  -0.000000  -0.000000  -0.000000
     7  C    0.000013  -0.000014   0.000009  -0.000000  -0.000097  -0.000029
     8  H    0.000025  -0.000028  -0.000006  -0.000000  -0.000117  -0.000002
     9  C    0.000041  -0.000037  -0.000321   0.000004   0.013123   0.000612
    10  C   -0.000430   0.000611   0.010817  -0.000431  -0.083691  -0.026626
    11  N   -0.000000   0.000000  -0.000005   0.000000   0.000045   0.000003
    12  C    0.000000   0.000000   0.000000  -0.000000  -0.000039  -0.000115
    13  H   -0.000000   0.000000  -0.000000  -0.000000  -0.000002   0.000001
    14  C    0.000000   0.000000  -0.000021  -0.000001  -0.000207   0.000925
    15  H   -0.000000  -0.000000   0.000000   0.000000   0.000011  -0.000001
    16  C   -0.000000  -0.000014   0.000633   0.000013  -0.004016   0.003811
    17  H   -0.000000  -0.000028   0.000716   0.000024   0.002766  -0.000596
    18  C    0.000004  -0.000037   0.000342   0.000041  -0.023834   0.008016
    19  F   -0.000000   0.000000  -0.000000  -0.000000  -0.000004   0.000002
    20  F   -0.000000  -0.000000   0.000000  -0.000000  -0.000000  -0.000000
    21  C    0.008873  -0.065955   0.004460   0.008858   0.476939  -0.039844
    22  C   -0.031195  -0.020663  -0.068641   0.000230  -0.061789   0.009947
    23  H   -0.013792   0.009393  -0.001016   0.000056   0.009945  -0.000076
    24  C    0.395095   0.503696  -0.005064   0.008221  -0.068665  -0.001012
    25  H    0.670039  -0.046777   0.008225  -0.000225   0.000227   0.000056
    26  C   -0.046777   4.772550   0.503648  -0.046762  -0.020631   0.009379
    27  C    0.008225   0.503648   4.705386   0.395101   0.518798  -0.038771
    28  H   -0.000225  -0.046762   0.395101   0.670003  -0.031232  -0.013764
    29  C    0.000227  -0.020631   0.518798  -0.031232   4.914040   0.395499
    30  H    0.000056   0.009379  -0.038771  -0.013764   0.395499   0.679920
    31  H   -0.012072   0.402531  -0.043472  -0.012071   0.009642  -0.000195
              31
     1  B    0.000000
     2  N    0.000000
     3  C   -0.000000
     4  H    0.000000
     5  C    0.000000
     6  H   -0.000000
     7  C    0.000000
     8  H    0.000000
     9  C   -0.000000
    10  C    0.000011
    11  N    0.000000
    12  C   -0.000000
    13  H    0.000000
    14  C    0.000000
    15  H   -0.000000
    16  C    0.000000
    17  H    0.000000
    18  C   -0.000000
    19  F    0.000000
    20  F   -0.000000
    21  C   -0.000446
    22  C    0.009642
    23  H   -0.000195
    24  C   -0.043463
    25  H   -0.012072
    26  C    0.402531
    27  C   -0.043472
    28  H   -0.012071
    29  C    0.009642
    30  H   -0.000195
    31  H    0.668624
 Mulliken charges:
               1
     1  B    0.195302
     2  N   -0.163827
     3  C    0.103670
     4  H    0.059168
     5  C   -0.023740
     6  H    0.032830
     7  C   -0.049362
     8  H    0.029474
     9  C    0.129731
    10  C   -0.020953
    11  N   -0.163525
    12  C    0.103613
    13  H    0.059174
    14  C   -0.023629
    15  H    0.032851
    16  C   -0.049461
    17  H    0.029372
    18  C    0.129529
    19  F   -0.228355
    20  F   -0.232270
    21  C    0.035327
    22  C   -0.046648
    23  H    0.012586
    24  C    0.009186
    25  H    0.021895
    26  C   -0.000864
    27  C    0.009187
    28  H    0.021935
    29  C   -0.046519
    30  H    0.012860
    31  H    0.021463
 Sum of Mulliken charges =  -0.00000
 Mulliken charges with hydrogens summed into heavy atoms:
               1
     1  B    0.195302
     2  N   -0.163827
     3  C    0.162838
     5  C    0.009090
     7  C   -0.019887
     9  C    0.129731
    10  C   -0.020953
    11  N   -0.163525
    12  C    0.162787
    14  C    0.009222
    16  C   -0.020089
    18  C    0.129529
    19  F   -0.228355
    20  F   -0.232270
    21  C    0.035327
    22  C   -0.034063
    24  C    0.031081
    26  C    0.020599
    27  C    0.031122
    29  C   -0.033659
 Electronic spatial extent (au):  <R**2>=           8571.4330
 Charge=             -0.0000 electrons
 Dipole moment (field-independent basis, Debye):
    X=             -2.9739    Y=             -4.0195    Z=              1.5682  Tot=              5.2402
 Quadrupole moment (field-independent basis, Debye-Ang):
   XX=            -87.8862   YY=           -123.4545   ZZ=            -88.9911
   XY=             -0.2005   XZ=             -0.3649   YZ=             -6.0012
 Traceless Quadrupole moment (field-independent basis, Debye-Ang):
   XX=             12.2244   YY=            -23.3439   ZZ=             11.1195
   XY=             -0.2005   XZ=             -0.3649   YZ=             -6.0012
 Octapole moment (field-independent basis, Debye-Ang**2):
  XXX=            602.7805  YYY=            -54.9609  ZZZ=           -487.8663  XYY=            268.2557
  XXY=             -8.7085  XXZ=           -137.3220  XZZ=            187.1252  YZZ=            -32.8295
  YYZ=           -203.9194  XYZ=             -9.4154
 Hexadecapole moment (field-independent basis, Debye-Ang**3):
 XXXX=          -5573.3100 YYYY=           -563.9774 ZZZZ=          -4126.9262 XXXY=             49.5267
 XXXZ=           1363.5328 YYYX=            168.7242 YYYZ=             -5.4570 ZZZX=           1412.8864
 ZZZY=            -51.9082 XXYY=          -1265.5944 XXZZ=          -1513.7589 YYZZ=           -912.6414
 XXYZ=             77.7257 YYXZ=            644.7316 ZZXY=             20.4427
 N-N= 1.471874713247D+03 E-N=-5.073502025930D+03  KE= 9.065718408928D+02
 No NMR shielding tensors so no spin-rotation constants.
 Leave Link  601 at Tue Feb  1 14:43:00 2022, MaxMem= 11408506880 cpu:               5.7 elap:               0.6
 (Enter /lustre1/prg/gaussian/bin/G16_C01_Linda9.2_SSE4/g16/l9999.exe)
 Electronic transition elements 
                 1             2             3             4             5 
      1  -0.912092D+03 -0.912049D+03 -0.912042D+03 -0.912026D+03 -0.912022D+03
      2  -0.156486D+01 -0.241571D+01  0.396192D+00  0.406648D+00  0.393802D+00
      3   0.352716D+00  0.470407D+00 -0.890350D-01  0.261122D+00 -0.934718D-01
      4  -0.205540D+01  0.191410D+01  0.533422D+00 -0.259830D+00  0.520306D+00
      5   0.115748D+00  0.282307D+00 -0.509787D-01 -0.589235D-01 -0.608500D-01
      6  -0.260860D-01 -0.580719D-01  0.114521D-01 -0.362067D-01  0.144003D-01
      7   0.151997D+00 -0.224215D+00 -0.685348D-01  0.378767D-01 -0.804186D-01
      8  -0.470279D-01  0.187253D+00 -0.285185D+00 -0.122138D+00 -0.172831D+00
      9   0.142860D+01 -0.348817D-01  0.578919D+00  0.138090D-01 -0.149497D+01
     10   0.280298D+00  0.241373D+00  0.317810D+00 -0.160641D+00 -0.129887D+00
     11  -0.425447D+00 -0.292458D+01  0.460232D+00  0.300222D+00  0.943942D+00
     12   0.434590D-01  0.579202D-01 -0.398180D-01  0.350600D-01  0.164106D-01
     13   0.390445D+00 -0.146999D+01 -0.435316D+00  0.127440D+00 -0.964773D+00
     14  -0.485589D-01  0.299813D+00  0.371077D-01  0.167971D+00 -0.146895D+00
     15  -0.129410D+00  0.287981D+01  0.150242D+00 -0.189413D+00  0.253028D+00
     16  -0.160179D+00 -0.354575D+00  0.152803D+00 -0.124721D+00  0.382396D-01
                 6 
      1  -0.911970D+03
      2  -0.513188D+00
      3   0.794677D-01
      4   0.399810D+00
      5   0.102172D+00
      6  -0.178190D-01
      7  -0.799672D-01
      8   0.659368D-01
      9  -0.773188D-02
     10   0.873886D-01
     11  -0.193672D+01
     12   0.271640D-03
     13  -0.125357D+01
     14   0.253407D+00
     15   0.139001D+01
     16  -0.165333D+00
 Unable to Open any file for archive entry.
 1\1\VILNIUS-FIZIKA11\FOpt\RM062X TD-FC\CC-pVDZ\C15H11B1F2N2\TOLISTE\01
 -Feb-2022\0\\#p m062x cc-pvdz scrf=(cpcm,solvent=Acetone) td=(nstate=6
 ,root=1) opt=tight nosymm density=all int=ultrafine fchk\\BDP-phenyl, 
 optimized R1 in toluene\\0,1\B,-0.2087764983,0.979415201,0.3439576924\
 N,-0.0547960163,0.0970109358,1.6099654642\C,1.0591482021,-0.4020374471
 ,2.1512401389\H,2.0341633928,-0.1740588374,1.7267716318\C,0.7240082097
 ,-1.2061381348,3.2708768234\H,1.4322445684,-1.7305830213,3.9057783227\
 C,-0.6602970865,-1.191970046,3.3826855707\H,-1.2678685373,-1.740995038
 5,4.0950580931\C,-1.1566592817,-0.3494744886,2.3476200142\C,-2.4933063
 603,-0.0225200297,1.9098464399\N,-1.5064367738,0.4250825266,-0.2987546
 844\C,-1.7876757491,0.2412142156,-1.5911011439\H,-1.0764882007,0.52990
 7096,-2.3616308642\C,-3.070640563,-0.3505553065,-1.7183143482\H,-3.557
 9310009,-0.6055436506,-2.6549681064\C,-3.5614275694,-0.5390787413,-0.4
 327666154\H,-4.4941282549,-1.0159608366,-0.1483700265\C,-2.5849414728,
 -0.0277144996,0.4686952646\F,-0.3709715788,2.3186200586,0.6975713947\F
 ,0.8718547424,0.8026298548,-0.507998706\C,-3.6254492039,0.1324192215,2
 .7959251956\C,-3.4714411093,0.07804786,4.2019224966\H,-2.4829828621,-0
 .0628997569,4.6350902402\C,-4.5598364232,0.23956597,5.0494015206\H,-4.
 4083584136,0.1926532756,6.1282536097\C,-5.8358796864,0.4733206361,4.53
 10906262\C,-6.0013815225,0.5732872306,3.1476076027\H,-6.9848073293,0.7
 894273776,2.7289359174\C,-4.9184895449,0.4129700095,2.2929135387\H,-5.
 0694607113,0.5365950969,1.2221092577\H,-6.688396365,0.5973662685,5.199
 0086389\\Version=ES64L-G16RevC.01\HF=-912.1646805\RMSD=8.143e-09\RMSF=
 1.700e-06\Dipole=-1.1700055,-1.581396,0.6169612\Quadrupole=9.0885723,-
 17.3556519,8.2670796,-0.1490372,-0.271268,-4.4617175\PG=C01 [X(C15H11B
 1F2N2)]\\@
 The archive entry for this job was punched.


 I WOULD TAKE COUNSEL OF MYSELF.
 I WOULD STOP AND LOOK WITHIN
 AND LOOKING WITHIN, LOOK BACK, ALSO
 THAT I MAY LOOK AHEAD WITH CLEARER UNDERSTANDING
 OF THE WAY I HAVE BEEN MOVING, AND IN WHAT DIRECTION.
 I NEED TO KNOW IF I AM GOING FORWARD OR RETREATING,
 WHETHER I HAVE BEEN WASTING, OR ENJOYING
 THE PRECIOUS MOMENTS OF LIFE.  THERE HAVE BEEN FRICTIONS,
 ANNOYANCES AND SOMETIMES WRATH,
 BUT WERE THEY BECAUSE I WAS RIGHT AND OTHERS WRONG.....
 HAVE I HAD MY THOUGHTS TOO SHARPLY FOCUSED
 ON THAT WHICH PLEASED ME, SERVED MY SELF-ESTEEM,
 UNDERGIRDED MY SECURITY,
 OF WHICH I DID NOT INQUIRE WHETHER IT SERVED OR HAMPERED OTHERS.....
 HAVE I BEEN TRYING TO STOP THE CLOCK
 TO HOLD THE WORLD
 IN PERPETUATION OF WHAT WAS AN IS ALREADY SLIPPING AWAY.....
 HAVE I BEEN CRITICAL OF OTHERS FOR WHAT REALLY NEEDED CHANGING IN ME...
 LET ME INDEED TAKE COUNSEL OF MYSELF
 AND SET MY DIRECTIONS STRAIGHT.

                          R.T. WESTON AS ADAPTED BY D. OSBORN 1967
 Job cpu time:       0 days  0 hours  2 minutes 56.9 seconds.
 Elapsed time:       0 days  2 hours  6 minutes 30.6 seconds.
 File lengths (MBytes):  RWF=    779 Int=      0 D2E=      0 Chk=     37 Scr=      1
 Normal termination of Gaussian 16 at Tue Feb  1 14:43:03 2022.
