 Entering Gaussian System, Link 0=/lustre1/prg/gaussian/bin/G16_C01_Linda_AVX/g16/g16
 Initial command:
 /lustre1/prg/gaussian/bin/G16_C01_Linda_AVX/g16/l1.exe "/lustre1/prg/webmo/data/webmo20/toliste/4369/scratch/Gau-29697.inp" -scrdir="/lustre1/prg/webmo/data/webmo20/toliste/4369/scratch/"
 Default is to use a total of  16 processors:
                               16 via shared-memory
                                1 via Linda
 Entering Link 1 = /lustre1/prg/gaussian/bin/G16_C01_Linda_AVX/g16/l1.exe PID=     29698.
  
 Copyright (c) 1988-2019, Gaussian, Inc.  All Rights Reserved.
  
 This is part of the Gaussian(R) 16 program.  It is based on
 the Gaussian(R) 09 system (copyright 2009, Gaussian, Inc.),
 the Gaussian(R) 03 system (copyright 2003, Gaussian, Inc.),
 the Gaussian(R) 98 system (copyright 1998, Gaussian, Inc.),
 the Gaussian(R) 94 system (copyright 1995, Gaussian, Inc.),
 the Gaussian 92(TM) system (copyright 1992, Gaussian, Inc.),
 the Gaussian 90(TM) system (copyright 1990, Gaussian, Inc.),
 the Gaussian 88(TM) system (copyright 1988, Gaussian, Inc.),
 the Gaussian 86(TM) system (copyright 1986, Carnegie Mellon
 University), and the Gaussian 82(TM) system (copyright 1983,
 Carnegie Mellon University). Gaussian is a federally registered
 trademark of Gaussian, Inc.
  
 This software contains proprietary and confidential information,
 including trade secrets, belonging to Gaussian, Inc.
  
 This software is provided under written license and may be
 used, copied, transmitted, or stored only in accord with that
 written license.
  
 The following legend is applicable only to US Government
 contracts under FAR:
  
                    RESTRICTED RIGHTS LEGEND
  
 Use, reproduction and disclosure by the US Government is
 subject to restrictions as set forth in subparagraphs (a)
 and (c) of the Commercial Computer Software - Restricted
 Rights clause in FAR 52.227-19.
  
 Gaussian, Inc.
 340 Quinnipiac St., Bldg. 40, Wallingford CT 06492
  
  
 ---------------------------------------------------------------
 Warning -- This program may not be used in any manner that
 competes with the business of Gaussian, Inc. or will provide
 assistance to any competitor of Gaussian, Inc.  The licensee
 of this program is prohibited from giving any competitor of
 Gaussian, Inc. access to this program.  By using this program,
 the user acknowledges that Gaussian, Inc. is engaged in the
 business of creating and licensing software in the field of
 computational chemistry and represents and warrants to the
 licensee that it is not a competitor of Gaussian, Inc. and that
 it will not use this program in any manner prohibited above.
 ---------------------------------------------------------------
  

 Cite this work as:
 Gaussian 16, Revision C.01,
 M. J. Frisch, G. W. Trucks, H. B. Schlegel, G. E. Scuseria, 
 M. A. Robb, J. R. Cheeseman, G. Scalmani, V. Barone, 
 G. A. Petersson, H. Nakatsuji, X. Li, M. Caricato, A. V. Marenich, 
 J. Bloino, B. G. Janesko, R. Gomperts, B. Mennucci, H. P. Hratchian, 
 J. V. Ortiz, A. F. Izmaylov, J. L. Sonnenberg, D. Williams-Young, 
 F. Ding, F. Lipparini, F. Egidi, J. Goings, B. Peng, A. Petrone, 
 T. Henderson, D. Ranasinghe, V. G. Zakrzewski, J. Gao, N. Rega, 
 G. Zheng, W. Liang, M. Hada, M. Ehara, K. Toyota, R. Fukuda, 
 J. Hasegawa, M. Ishida, T. Nakajima, Y. Honda, O. Kitao, H. Nakai, 
 T. Vreven, K. Throssell, J. A. Montgomery, Jr., J. E. Peralta, 
 F. Ogliaro, M. J. Bearpark, J. J. Heyd, E. N. Brothers, K. N. Kudin, 
 V. N. Staroverov, T. A. Keith, R. Kobayashi, J. Normand, 
 K. Raghavachari, A. P. Rendell, J. C. Burant, S. S. Iyengar, 
 J. Tomasi, M. Cossi, J. M. Millam, M. Klene, C. Adamo, R. Cammi, 
 J. W. Ochterski, R. L. Martin, K. Morokuma, O. Farkas, 
 J. B. Foresman, and D. J. Fox, Gaussian, Inc., Wallingford CT, 2019.
 
 ******************************************
 Gaussian 16:  ES64L-G16RevC.01  3-Jul-2019
                31-Jan-2022 
 ******************************************
 %LindaWorkers=fizika110,fizika111,fizika112,fizika113
 %chk=bodipy.chk
 SetLPE:  input flags=" -opt "Tsnet.Node.lindarsharg: ssh" "
 SetLPE:    new flags=" -opt "Tsnet.Node.lindarsharg: ssh" -opt 'Tsnet.Node.lindarsharg: ssh'  -nodelist 'fizika110.fizika.bullx fizika111.fizika.bullx fizika112.fizika.bullx fizika113.fizika.bullx' -env GAUSS_MDEF=14763950080 -env GAUSS_EXEDIR="/lustre1/prg/gaussian/bin/G16_C01_Linda_AVX/g16/bsd:/lustre1/prg/gaussian/bin/G16_C01_Linda_AVX/g16/private:/lustre1/prg/gaussian/bin/G16_C01_Linda_AVX/g16""
 Will use up to    4 processors via Linda.
 ----------------------------------------------------------------------
 #p m062x cc-pvdz scrf=(cpcm,solvent=Methanol) td=(nstate=6,root=1) opt
 =tight nosymm density=all int=ultrafine fchk
 ----------------------------------------------------------------------
 1/7=10,18=20,19=15,26=6,38=1/1,3;
 2/9=110,12=2,15=1,17=6,18=5,40=1/2;
 3/5=16,11=9,25=1,30=1,70=2101,71=1,72=3,74=-55,75=-5/1,2,3,8;
 4//1;
 5/5=2,38=5,53=3/2;
 8/6=1,10=1,107=1,108=6/1;
 9/8=1,15=2,30=10,41=6,42=1,70=2/14;
 10/5=4,28=1,31=1/2;
 6/7=2,8=2,9=2,10=2,22=-2/1;
 7/12=6,13=5,14=1,30=1/1,2,3,16;
 1/7=10,18=20,19=15,26=6/3(2);
 2/9=110,15=1/2;
 99//99;
 2/9=110,15=1/2;
 3/5=16,11=9,25=1,30=1,70=2105,71=1,72=3,74=-55,75=-5/1,2,3,8;
 4/5=5,16=3,69=1/1;
 5/5=2,38=5,53=3/2;
 8/6=1,10=1,107=1,108=6/1;
 9/8=1,15=2,30=10,41=6,42=1,49=4,70=2/14;
 10/5=4,28=1,31=1/2;
 7/12=6,13=5,14=1,30=1/1,2,3,16;
 1/7=10,18=20,19=15,26=6/3(-8);
 2/9=110,15=1/2;
 6/7=2,8=2,9=2,10=2,22=-2/1;
 99/9=10/99;
 Leave Link    1 at Mon Jan 31 14:19:07 2022, MaxMem=           0 cpu:               2.5 elap:               0.2
 (Enter /lustre1/prg/gaussian/bin/G16_C01_Linda_AVX/g16/l101.exe)
 -----------------------------------
 BDP-phenyl, optimized R1 in toluene
 -----------------------------------
 Symbolic Z-matrix:
 Charge =  0 Multiplicity = 1
 B                    -0.22646   1.02681   0.36646 
 N                    -0.06346   0.11716   1.6183 
 C                     1.04881  -0.4059    2.13522 
 H                     2.02119  -0.16772   1.71082 
 C                     0.71474  -1.24518   3.22852 
 H                     1.42267  -1.78941   3.84689 
 C                    -0.67094  -1.22985   3.34561 
 H                    -1.28192  -1.79526   4.04248 
 C                    -1.16328  -0.35008   2.3457 
 C                    -2.50187  -0.00928   1.91758 
 N                    -1.51319   0.44742  -0.28853 
 C                    -1.77437   0.23585  -1.57892 
 H                    -1.06149   0.53442  -2.34383 
 C                    -3.03758  -0.39527  -1.70995 
 H                    -3.51184  -0.6718   -2.64717 
 C                    -3.53461  -0.58315  -0.42471 
 H                    -4.45639  -1.08008  -0.13831 
 C                    -2.58533  -0.02833   0.47368 
 F                    -0.42456   2.34713   0.74603 
 F                     0.85674   0.8763   -0.48305 
 C                    -3.6264    0.15309   2.79958 
 C                    -3.46924   0.10032   4.20663 
 H                    -2.47734  -0.03957   4.63367 
 C                    -4.55662   0.26174   5.05338 
 H                    -4.40589   0.21851   6.13251 
 C                    -5.83355   0.49213   4.53442 
 C                    -6.00218   0.58814   3.15055 
 H                    -6.98729   0.80149   2.73438 
 C                    -4.92145   0.42812   2.29504 
 H                    -5.06883   0.54548   1.22249 
 H                    -6.6855    0.61676   5.20297 
 
 ITRead=  0  0  0  0  0  0  0  0  0  0  0  0  0  0  0  0  0  0  0  0
 ITRead=  0  0  0  0  0  0  0  0  0  0  0
 MicOpt= -1 -1 -1 -1 -1 -1 -1 -1 -1 -1 -1 -1 -1 -1 -1 -1 -1 -1 -1 -1
 MicOpt= -1 -1 -1 -1 -1 -1 -1 -1 -1 -1 -1
 NAtoms=     31 NQM=       31 NQMF=       0 NMMI=      0 NMMIF=      0
                NMic=       0 NMicF=      0.
                    Isotopes and Nuclear Properties:
 (Nuclear quadrupole moments (NQMom) in fm**2, nuclear magnetic moments (NMagM)
  in nuclear magnetons)

  Atom         1           2           3           4           5           6           7           8           9          10
 IAtWgt=          11          14          12           1          12           1          12           1          12          12
 AtmWgt=  11.0093053  14.0030740  12.0000000   1.0078250  12.0000000   1.0078250  12.0000000   1.0078250  12.0000000  12.0000000
 NucSpn=           3           2           0           1           0           1           0           1           0           0
 AtZEff=  -0.0000000  -0.0000000  -0.0000000  -0.0000000  -0.0000000  -0.0000000  -0.0000000  -0.0000000  -0.0000000  -0.0000000
 NQMom=    4.0590000   2.0440000   0.0000000   0.0000000   0.0000000   0.0000000   0.0000000   0.0000000   0.0000000   0.0000000
 NMagM=    2.6886370   0.4037610   0.0000000   2.7928460   0.0000000   2.7928460   0.0000000   2.7928460   0.0000000   0.0000000
 AtZNuc=   5.0000000   7.0000000   6.0000000   1.0000000   6.0000000   1.0000000   6.0000000   1.0000000   6.0000000   6.0000000

  Atom        11          12          13          14          15          16          17          18          19          20
 IAtWgt=          14          12           1          12           1          12           1          12          19          19
 AtmWgt=  14.0030740  12.0000000   1.0078250  12.0000000   1.0078250  12.0000000   1.0078250  12.0000000  18.9984032  18.9984032
 NucSpn=           2           0           1           0           1           0           1           0           1           1
 AtZEff=  -0.0000000  -0.0000000  -0.0000000  -0.0000000  -0.0000000  -0.0000000  -0.0000000  -0.0000000  -0.0000000  -0.0000000
 NQMom=    2.0440000   0.0000000   0.0000000   0.0000000   0.0000000   0.0000000   0.0000000   0.0000000   0.0000000   0.0000000
 NMagM=    0.4037610   0.0000000   2.7928460   0.0000000   2.7928460   0.0000000   2.7928460   0.0000000   2.6288670   2.6288670
 AtZNuc=   7.0000000   6.0000000   1.0000000   6.0000000   1.0000000   6.0000000   1.0000000   6.0000000   9.0000000   9.0000000

  Atom        21          22          23          24          25          26          27          28          29          30
 IAtWgt=          12          12           1          12           1          12          12           1          12           1
 AtmWgt=  12.0000000  12.0000000   1.0078250  12.0000000   1.0078250  12.0000000  12.0000000   1.0078250  12.0000000   1.0078250
 NucSpn=           0           0           1           0           1           0           0           1           0           1
 AtZEff=  -0.0000000  -0.0000000  -0.0000000  -0.0000000  -0.0000000  -0.0000000  -0.0000000  -0.0000000  -0.0000000  -0.0000000
 NQMom=    0.0000000   0.0000000   0.0000000   0.0000000   0.0000000   0.0000000   0.0000000   0.0000000   0.0000000   0.0000000
 NMagM=    0.0000000   0.0000000   2.7928460   0.0000000   2.7928460   0.0000000   0.0000000   2.7928460   0.0000000   2.7928460
 AtZNuc=   6.0000000   6.0000000   1.0000000   6.0000000   1.0000000   6.0000000   6.0000000   1.0000000   6.0000000   1.0000000

  Atom        31
 IAtWgt=           1
 AtmWgt=   1.0078250
 NucSpn=           1
 AtZEff=  -0.0000000
 NQMom=    0.0000000
 NMagM=    2.7928460
 AtZNuc=   1.0000000
 Leave Link  101 at Mon Jan 31 14:19:08 2022, MaxMem= 14763950080 cpu:              12.1 elap:               0.8
 (Enter /lustre1/prg/gaussian/bin/G16_C01_Linda_AVX/g16/l103.exe)

 GradGradGradGradGradGradGradGradGradGradGradGradGradGradGradGradGradGrad
 Berny optimization.
 Initialization pass.
                           ----------------------------
                           !    Initial Parameters    !
                           ! (Angstroms and Degrees)  !
 --------------------------                            --------------------------
 ! Name  Definition              Value          Derivative Info.                !
 --------------------------------------------------------------------------------
 ! R1    R(1,2)                  1.556          estimate D2E/DX2                !
 ! R2    R(1,11)                 1.5558         estimate D2E/DX2                !
 ! R3    R(1,19)                 1.388          estimate D2E/DX2                !
 ! R4    R(1,20)                 1.3848         estimate D2E/DX2                !
 ! R5    R(2,3)                  1.3334         estimate D2E/DX2                !
 ! R6    R(2,9)                  1.3989         estimate D2E/DX2                !
 ! R7    R(3,4)                  1.0874         estimate D2E/DX2                !
 ! R8    R(3,5)                  1.4182         estimate D2E/DX2                !
 ! R9    R(5,6)                  1.0862         estimate D2E/DX2                !
 ! R10   R(5,7)                  1.3907         estimate D2E/DX2                !
 ! R11   R(7,8)                  1.0856         estimate D2E/DX2                !
 ! R12   R(7,9)                  1.4199         estimate D2E/DX2                !
 ! R13   R(9,10)                 1.4461         estimate D2E/DX2                !
 ! R14   R(10,18)                1.4464         estimate D2E/DX2                !
 ! R15   R(10,21)                1.4384         estimate D2E/DX2                !
 ! R16   R(11,12)                1.3335         estimate D2E/DX2                !
 ! R17   R(11,18)                1.3989         estimate D2E/DX2                !
 ! R18   R(12,13)                1.0874         estimate D2E/DX2                !
 ! R19   R(12,14)                1.4182         estimate D2E/DX2                !
 ! R20   R(14,15)                1.0862         estimate D2E/DX2                !
 ! R21   R(14,16)                1.3907         estimate D2E/DX2                !
 ! R22   R(16,17)                1.0857         estimate D2E/DX2                !
 ! R23   R(16,18)                1.4199         estimate D2E/DX2                !
 ! R24   R(21,22)                1.4168         estimate D2E/DX2                !
 ! R25   R(21,29)                1.4168         estimate D2E/DX2                !
 ! R26   R(22,23)                1.0889         estimate D2E/DX2                !
 ! R27   R(22,24)                1.3876         estimate D2E/DX2                !
 ! R28   R(24,25)                1.0905         estimate D2E/DX2                !
 ! R29   R(24,26)                1.3975         estimate D2E/DX2                !
 ! R30   R(26,27)                1.3974         estimate D2E/DX2                !
 ! R31   R(26,31)                1.0901         estimate D2E/DX2                !
 ! R32   R(27,28)                1.0905         estimate D2E/DX2                !
 ! R33   R(27,29)                1.3876         estimate D2E/DX2                !
 ! R34   R(29,30)                1.089          estimate D2E/DX2                !
 ! A1    A(2,1,11)             101.9836         estimate D2E/DX2                !
 ! A2    A(2,1,19)             110.5514         estimate D2E/DX2                !
 ! A3    A(2,1,20)             110.3687         estimate D2E/DX2                !
 ! A4    A(11,1,19)            110.5695         estimate D2E/DX2                !
 ! A5    A(11,1,20)            110.3771         estimate D2E/DX2                !
 ! A6    A(19,1,20)            112.5065         estimate D2E/DX2                !
 ! A7    A(1,2,3)              128.9472         estimate D2E/DX2                !
 ! A8    A(1,2,9)              122.0884         estimate D2E/DX2                !
 ! A9    A(3,2,9)              108.8569         estimate D2E/DX2                !
 ! A10   A(2,3,4)              120.5784         estimate D2E/DX2                !
 ! A11   A(2,3,5)              109.543          estimate D2E/DX2                !
 ! A12   A(4,3,5)              129.8783         estimate D2E/DX2                !
 ! A13   A(3,5,6)              125.5836         estimate D2E/DX2                !
 ! A14   A(3,5,7)              107.0431         estimate D2E/DX2                !
 ! A15   A(6,5,7)              127.3733         estimate D2E/DX2                !
 ! A16   A(5,7,8)              127.5214         estimate D2E/DX2                !
 ! A17   A(5,7,9)              107.0385         estimate D2E/DX2                !
 ! A18   A(8,7,9)              125.4206         estimate D2E/DX2                !
 ! A19   A(2,9,7)              107.488          estimate D2E/DX2                !
 ! A20   A(2,9,10)             119.675          estimate D2E/DX2                !
 ! A21   A(7,9,10)             132.4882         estimate D2E/DX2                !
 ! A22   A(9,10,18)            110.2326         estimate D2E/DX2                !
 ! A23   A(9,10,21)            124.6633         estimate D2E/DX2                !
 ! A24   A(18,10,21)           124.646          estimate D2E/DX2                !
 ! A25   A(1,11,12)            128.9401         estimate D2E/DX2                !
 ! A26   A(1,11,18)            122.0841         estimate D2E/DX2                !
 ! A27   A(12,11,18)           108.8567         estimate D2E/DX2                !
 ! A28   A(11,12,13)           120.5797         estimate D2E/DX2                !
 ! A29   A(11,12,14)           109.5416         estimate D2E/DX2                !
 ! A30   A(13,12,14)           129.8783         estimate D2E/DX2                !
 ! A31   A(12,14,15)           125.5878         estimate D2E/DX2                !
 ! A32   A(12,14,16)           107.0417         estimate D2E/DX2                !
 ! A33   A(15,14,16)           127.3705         estimate D2E/DX2                !
 ! A34   A(14,16,17)           127.5219         estimate D2E/DX2                !
 ! A35   A(14,16,18)           107.0379         estimate D2E/DX2                !
 ! A36   A(17,16,18)           125.4214         estimate D2E/DX2                !
 ! A37   A(10,18,11)           119.6848         estimate D2E/DX2                !
 ! A38   A(10,18,16)           132.4802         estimate D2E/DX2                !
 ! A39   A(11,18,16)           107.4904         estimate D2E/DX2                !
 ! A40   A(10,21,22)           121.2024         estimate D2E/DX2                !
 ! A41   A(10,21,29)           121.2096         estimate D2E/DX2                !
 ! A42   A(22,21,29)           117.5349         estimate D2E/DX2                !
 ! A43   A(21,22,23)           119.6891         estimate D2E/DX2                !
 ! A44   A(21,22,24)           120.9828         estimate D2E/DX2                !
 ! A45   A(23,22,24)           119.3034         estimate D2E/DX2                !
 ! A46   A(22,24,25)           119.4035         estimate D2E/DX2                !
 ! A47   A(22,24,26)           120.571          estimate D2E/DX2                !
 ! A48   A(25,24,26)           120.0219         estimate D2E/DX2                !
 ! A49   A(24,26,27)           119.2974         estimate D2E/DX2                !
 ! A50   A(24,26,31)           120.3456         estimate D2E/DX2                !
 ! A51   A(27,26,31)           120.3443         estimate D2E/DX2                !
 ! A52   A(26,27,28)           120.0258         estimate D2E/DX2                !
 ! A53   A(26,27,29)           120.5743         estimate D2E/DX2                !
 ! A54   A(28,27,29)           119.3964         estimate D2E/DX2                !
 ! A55   A(21,29,27)           120.9797         estimate D2E/DX2                !
 ! A56   A(21,29,30)           119.6945         estimate D2E/DX2                !
 ! A57   A(27,29,30)           119.3008         estimate D2E/DX2                !
 ! D1    D(11,1,2,3)           139.2715         estimate D2E/DX2                !
 ! D2    D(11,1,2,9)           -36.5239         estimate D2E/DX2                !
 ! D3    D(19,1,2,3)          -103.1373         estimate D2E/DX2                !
 ! D4    D(19,1,2,9)            81.0673         estimate D2E/DX2                !
 ! D5    D(20,1,2,3)            21.9809         estimate D2E/DX2                !
 ! D6    D(20,1,2,9)          -153.8145         estimate D2E/DX2                !
 ! D7    D(2,1,11,12)         -139.1822         estimate D2E/DX2                !
 ! D8    D(2,1,11,18)           36.3892         estimate D2E/DX2                !
 ! D9    D(19,1,11,12)         103.2396         estimate D2E/DX2                !
 ! D10   D(19,1,11,18)         -81.189          estimate D2E/DX2                !
 ! D11   D(20,1,11,12)         -21.8977         estimate D2E/DX2                !
 ! D12   D(20,1,11,18)         153.6737         estimate D2E/DX2                !
 ! D13   D(1,2,3,4)              3.712          estimate D2E/DX2                !
 ! D14   D(1,2,3,5)           -176.1031         estimate D2E/DX2                !
 ! D15   D(9,2,3,4)            179.9484         estimate D2E/DX2                !
 ! D16   D(9,2,3,5)              0.1333         estimate D2E/DX2                !
 ! D17   D(1,2,9,7)            175.3782         estimate D2E/DX2                !
 ! D18   D(1,2,9,10)             1.3375         estimate D2E/DX2                !
 ! D19   D(3,2,9,7)             -1.1673         estimate D2E/DX2                !
 ! D20   D(3,2,9,10)          -175.2081         estimate D2E/DX2                !
 ! D21   D(2,3,5,6)           -179.0094         estimate D2E/DX2                !
 ! D22   D(2,3,5,7)              0.9718         estimate D2E/DX2                !
 ! D23   D(4,3,5,6)              1.1981         estimate D2E/DX2                !
 ! D24   D(4,3,5,7)           -178.8207         estimate D2E/DX2                !
 ! D25   D(3,5,7,8)            176.797          estimate D2E/DX2                !
 ! D26   D(3,5,7,9)             -1.6516         estimate D2E/DX2                !
 ! D27   D(6,5,7,8)             -3.2222         estimate D2E/DX2                !
 ! D28   D(6,5,7,9)            178.3291         estimate D2E/DX2                !
 ! D29   D(5,7,9,2)              1.7472         estimate D2E/DX2                !
 ! D30   D(5,7,9,10)           174.7209         estimate D2E/DX2                !
 ! D31   D(8,7,9,2)           -176.7429         estimate D2E/DX2                !
 ! D32   D(8,7,9,10)            -3.7692         estimate D2E/DX2                !
 ! D33   D(2,9,10,18)           38.2167         estimate D2E/DX2                !
 ! D34   D(2,9,10,21)         -149.2588         estimate D2E/DX2                !
 ! D35   D(7,9,10,18)         -134.0662         estimate D2E/DX2                !
 ! D36   D(7,9,10,21)           38.4584         estimate D2E/DX2                !
 ! D37   D(9,10,18,11)         -38.3516         estimate D2E/DX2                !
 ! D38   D(9,10,18,16)         133.9795         estimate D2E/DX2                !
 ! D39   D(21,10,18,11)        149.1223         estimate D2E/DX2                !
 ! D40   D(21,10,18,16)        -38.5466         estimate D2E/DX2                !
 ! D41   D(9,10,21,22)           5.644          estimate D2E/DX2                !
 ! D42   D(9,10,21,29)        -177.0728         estimate D2E/DX2                !
 ! D43   D(18,10,21,22)        177.1106         estimate D2E/DX2                !
 ! D44   D(18,10,21,29)         -5.6062         estimate D2E/DX2                !
 ! D45   D(1,11,12,13)          -3.9072         estimate D2E/DX2                !
 ! D46   D(1,11,12,14)         175.8862         estimate D2E/DX2                !
 ! D47   D(18,11,12,13)       -179.943          estimate D2E/DX2                !
 ! D48   D(18,11,12,14)         -0.1496         estimate D2E/DX2                !
 ! D49   D(1,11,18,10)          -1.0846         estimate D2E/DX2                !
 ! D50   D(1,11,18,16)        -175.1616         estimate D2E/DX2                !
 ! D51   D(12,11,18,10)        175.2767         estimate D2E/DX2                !
 ! D52   D(12,11,18,16)          1.1996         estimate D2E/DX2                !
 ! D53   D(11,12,14,15)        178.9889         estimate D2E/DX2                !
 ! D54   D(11,12,14,16)         -0.9781         estimate D2E/DX2                !
 ! D55   D(13,12,14,15)         -1.2429         estimate D2E/DX2                !
 ! D56   D(13,12,14,16)        178.7901         estimate D2E/DX2                !
 ! D57   D(12,14,16,17)       -176.8002         estimate D2E/DX2                !
 ! D58   D(12,14,16,18)          1.6774         estimate D2E/DX2                !
 ! D59   D(15,14,16,17)          3.2335         estimate D2E/DX2                !
 ! D60   D(15,14,16,18)       -178.2888         estimate D2E/DX2                !
 ! D61   D(14,16,18,10)       -174.8011         estimate D2E/DX2                !
 ! D62   D(14,16,18,11)         -1.7829         estimate D2E/DX2                !
 ! D63   D(17,16,18,10)          3.7173         estimate D2E/DX2                !
 ! D64   D(17,16,18,11)        176.7355         estimate D2E/DX2                !
 ! D65   D(10,21,22,23)          1.615          estimate D2E/DX2                !
 ! D66   D(10,21,22,24)        179.7957         estimate D2E/DX2                !
 ! D67   D(29,21,22,23)       -175.7647         estimate D2E/DX2                !
 ! D68   D(29,21,22,24)          2.4161         estimate D2E/DX2                !
 ! D69   D(10,21,29,27)       -179.7904         estimate D2E/DX2                !
 ! D70   D(10,21,29,30)         -1.6203         estimate D2E/DX2                !
 ! D71   D(22,21,29,27)         -2.411          estimate D2E/DX2                !
 ! D72   D(22,21,29,30)        175.7591         estimate D2E/DX2                !
 ! D73   D(21,22,24,25)       -179.8708         estimate D2E/DX2                !
 ! D74   D(21,22,24,26)         -0.5504         estimate D2E/DX2                !
 ! D75   D(23,22,24,25)         -1.6831         estimate D2E/DX2                !
 ! D76   D(23,22,24,26)        177.6373         estimate D2E/DX2                !
 ! D77   D(22,24,26,27)         -1.3945         estimate D2E/DX2                !
 ! D78   D(22,24,26,31)        179.8982         estimate D2E/DX2                !
 ! D79   D(25,24,26,27)        177.9216         estimate D2E/DX2                !
 ! D80   D(25,24,26,31)         -0.7856         estimate D2E/DX2                !
 ! D81   D(24,26,27,28)       -177.9153         estimate D2E/DX2                !
 ! D82   D(24,26,27,29)          1.3996         estimate D2E/DX2                !
 ! D83   D(31,26,27,28)          0.7919         estimate D2E/DX2                !
 ! D84   D(31,26,27,29)       -179.8932         estimate D2E/DX2                !
 ! D85   D(26,27,29,21)          0.5402         estimate D2E/DX2                !
 ! D86   D(26,27,29,30)       -177.637          estimate D2E/DX2                !
 ! D87   D(28,27,29,21)        179.8594         estimate D2E/DX2                !
 ! D88   D(28,27,29,30)          1.6821         estimate D2E/DX2                !
 --------------------------------------------------------------------------------
 Trust Radius=3.00D-01 FncErr=5.00D-06 GrdErr=5.00D-06 EigMax=2.50D+02 EigMin=1.00D-04
 Number of steps in this run=    186 maximum allowed number of steps=    186.
 GradGradGradGradGradGradGradGradGradGradGradGradGradGradGradGradGradGrad

 Leave Link  103 at Mon Jan 31 14:19:09 2022, MaxMem= 14763950080 cpu:               0.3 elap:               0.0
 (Enter /lustre1/prg/gaussian/bin/G16_C01_Linda_AVX/g16/l202.exe)
                          Input orientation:                          
 ---------------------------------------------------------------------
 Center     Atomic      Atomic             Coordinates (Angstroms)
 Number     Number       Type             X           Y           Z
 ---------------------------------------------------------------------
      1          5           0       -0.226459    1.026812    0.366463
      2          7           0       -0.063462    0.117158    1.618295
      3          6           0        1.048809   -0.405898    2.135222
      4          1           0        2.021194   -0.167721    1.710815
      5          6           0        0.714744   -1.245178    3.228518
      6          1           0        1.422671   -1.789411    3.846891
      7          6           0       -0.670943   -1.229853    3.345611
      8          1           0       -1.281919   -1.795257    4.042479
      9          6           0       -1.163278   -0.350078    2.345698
     10          6           0       -2.501871   -0.009279    1.917580
     11          7           0       -1.513186    0.447418   -0.288528
     12          6           0       -1.774374    0.235850   -1.578922
     13          1           0       -1.061486    0.534415   -2.343826
     14          6           0       -3.037583   -0.395268   -1.709952
     15          1           0       -3.511843   -0.671799   -2.647172
     16          6           0       -3.534609   -0.583147   -0.424714
     17          1           0       -4.456386   -1.080078   -0.138313
     18          6           0       -2.585327   -0.028326    0.473683
     19          9           0       -0.424564    2.347126    0.746029
     20          9           0        0.856740    0.876303   -0.483047
     21          6           0       -3.626401    0.153085    2.799581
     22          6           0       -3.469244    0.100324    4.206627
     23          1           0       -2.477342   -0.039565    4.633673
     24          6           0       -4.556616    0.261739    5.053379
     25          1           0       -4.405886    0.218510    6.132511
     26          6           0       -5.833553    0.492130    4.534417
     27          6           0       -6.002176    0.588139    3.150548
     28          1           0       -6.987290    0.801491    2.734377
     29          6           0       -4.921445    0.428118    2.295037
     30          1           0       -5.068829    0.545480    1.222494
     31          1           0       -6.685495    0.616763    5.202967
 ---------------------------------------------------------------------
                    Distance matrix (angstroms):
                    1          2          3          4          5
     1  B    0.000000
     2  N    1.555995   0.000000
     3  C    2.609114   1.333397   0.000000
     4  H    2.878565   2.106064   1.087374   0.000000
     5  C    3.773481   2.248195   1.418198   2.274016   0.000000
     6  H    4.771176   3.287892   2.232418   2.747895   1.086156
     7  C    3.763698   2.273124   2.258648   3.323896   1.390710
     8  H    4.753016   3.319433   3.316661   4.358450   2.225260
     9  C    2.586663   1.398935   2.222779   3.252260   2.259987
    10  C    2.942269   2.459959   3.579386   4.530560   3.686817
    11  N    1.555756   2.418004   3.628571   4.107020   4.494237
    12  C    2.608867   3.628154   4.709253   5.039005   5.612542
    13  H    2.878436   4.107135   5.039782   5.141597   6.113343
    14  C    3.773093   4.492795   5.611067   6.111027   6.260255
    15  H    4.770851   5.541479   6.613739   7.061207   7.260615
    16  C    3.763215   4.088175   5.252848   5.966574   5.642818
    17  H    4.752480   4.880249   5.994218   6.797846   6.172795
    18  C    2.586324   2.773284   4.013753   4.771788   4.467697
    19  F    1.388000   2.421570   3.417576   3.638269   4.512806
    20  F    1.384789   2.416342   2.921688   2.694248   4.277448
    21  C    4.271190   3.753833   4.755147   5.760526   4.580902
    22  C    5.110860   4.277744   4.995977   6.037039   4.502536
    23  H    4.940923   3.865732   4.337073   5.366223   3.690173
    24  C    6.426724   5.657662   6.354697   7.390856   5.778248
    25  H    7.167166   6.264588   6.791311   7.810757   6.066004
    26  C    7.006941   6.475980   7.343671   8.372884   6.899551
    27  C    6.426700   6.151256   7.192731   8.186490   6.963056
    28  H    7.167051   7.046513   8.148353   9.118105   7.984633
    29  C    5.110844   4.914741   6.030345   6.992609   5.952977
    30  H    4.940953   5.039228   6.258090   7.142516   6.378111
    31  H    8.079546   7.546575   8.383099   9.413659   7.882183
                    6          7          8          9         10
     6  H    0.000000
     7  C    2.224322   0.000000
     8  H    2.711659   1.085633   0.000000
     9  C    3.318492   1.419938   2.231969   0.000000
    10  C    4.721561   2.623237   3.032028   1.446119   0.000000
    11  N    5.542955   4.090181   4.882694   2.774452   2.460281
    12  C    6.615302   5.255176   5.997337   4.014896   3.579786
    13  H    7.063723   5.969494   6.801533   4.773293   4.530993
    14  C    7.260579   5.644133   6.175175   4.468037   3.687135
    15  H    8.232335   6.655493   7.140459   5.527026   4.721857
    16  C    6.654044   4.778510   5.147780   3.654137   2.623397
    17  H    7.137809   5.146818   5.297900   4.189006   3.032068
    18  C    5.526663   3.654655   4.190134   2.372802   1.446432
    19  F    5.489860   4.428691   5.362926   3.221731   3.352668
    20  F    5.116119   4.629074   5.673754   3.685957   4.222266
    21  C    5.510288   3.308383   3.292025   2.554635   1.438352
    22  C    5.256552   3.215775   2.899062   2.997232   2.487481
    23  H    4.346388   2.517730   2.204768   2.656692   2.716373
    24  C    6.435426   4.498864   3.997098   4.384130   3.758811
    25  H    6.574791   4.879997   4.264113   5.017744   4.630638
    26  C    7.637467   5.570550   5.117765   5.226019   4.266070
    27  C    7.827259   5.636062   5.362550   4.994294   3.758890
    28  H    8.870057   6.663048   6.403553   5.949479   4.630711
    29  C    6.897354   4.681810   4.609024   3.838225   2.487595
    30  H    7.380972   5.196233   5.269920   4.161363   2.716648
    31  H    8.565686   6.560076   6.030191   6.292348   5.356156
                   11         12         13         14         15
    11  N    0.000000
    12  C    1.333453   0.000000
    13  H    2.106146   1.087395   0.000000
    14  C    2.248189   1.418159   2.273998   0.000000
    15  H    3.287929   2.232439   2.747948   1.086174   0.000000
    16  C    2.273051   2.258623   3.323894   1.390744   2.224342
    17  H    3.319373   3.316656   4.358465   2.225313   2.711683
    18  C    1.398851   2.222751   3.252249   2.259965   3.318467
    19  F    2.421631   3.418314   3.638515   4.514470   5.491722
    20  F    2.416263   2.921281   2.694249   4.276440   5.115132
    21  C    3.753495   4.754802   5.760107   4.580752   5.510052
    22  C    4.914576   6.030218   6.992436   5.952970   6.897286
    23  H    5.039327   6.258303   7.142800   6.378242   7.381099
    24  C    6.150847   7.192285   8.185898   6.962885   7.826974
    25  H    7.046265   8.148089   9.117735   7.984560   8.869881
    26  C    6.475212   7.342719   8.371657   6.899063   7.636772
    27  C    5.656684   6.353448   7.389279   5.777574   6.434498
    28  H    6.263317   6.789624   7.808625   6.065021   6.573461
    29  C    4.276846   4.994855   6.035697   4.501870   5.255685
    30  H    3.864635   4.335578   5.364472   3.689201   4.345145
    31  H    7.545726   8.382018   9.412244   7.881619   8.564878
                   16         17         18         19         20
    16  C    0.000000
    17  H    1.085651   0.000000
    18  C    1.419887   2.231946   0.000000
    19  F    4.430521   5.365014   3.222707   0.000000
    20  F    4.627888   5.672352   3.685310   2.305578   0.000000
    21  C    3.308556   3.292535   2.554711   4.391202   5.603324
    22  C    4.681957   4.609371   3.838324   5.127761   6.427233
    23  H    5.196208   5.269832   4.161406   5.002396   6.175414
    24  C    5.636296   5.363225   4.994370   6.322654   7.767504
    25  H    6.663256   6.404070   5.949596   7.028237   8.479005
    26  C    5.570848   5.118870   5.226032   6.859304   8.371532
    27  C    4.499255   3.998627   4.384118   6.323409   7.767289
    28  H    4.880377   4.265926   5.017630   7.029359   8.478574
    29  C    3.216056   2.900367   2.997185   5.128738   6.426978
    30  H    2.518119   2.206654   2.656643   5.004213   6.175005
    31  H    6.560386   6.031374   6.292348   7.877672   9.448991
                   21         22         23         24         25
    21  C    0.000000
    22  C    1.416778   0.000000
    23  H    2.172865   1.088948   0.000000
    24  C    2.440637   1.387596   2.142503   0.000000
    25  H    3.423492   2.144830   2.456094   1.090465   0.000000
    26  C    2.827742   2.418867   3.399515   1.397487   2.160325
    27  C    2.440647   2.787295   3.875323   2.411835   3.402480
    28  H    3.423486   3.877603   4.965313   3.402540   4.307067
    29  C    1.416809   2.422914   3.414906   2.787334   3.877621
    30  H    2.172965   3.414950   4.323682   3.875378   4.965347
    31  H    3.917821   3.406416   4.296907   2.163457   2.493847
                   26         27         28         29         30
    26  C    0.000000
    27  C    1.397406   0.000000
    28  H    2.160314   1.090489   0.000000
    29  C    2.418855   1.387619   2.144794   0.000000
    30  H    3.399483   2.142510   2.455977   1.088965   0.000000
    31  H    1.090091   2.163370   2.493821   3.406393   4.296843
                   31
    31  H    0.000000
 Symmetry turned off by external request.
 Stoichiometry    C15H11BF2N2
 Framework group  C1[X(C15H11BF2N2)]
 Deg. of freedom    87
 Full point group                 C1      NOp   1
 Rotational constants (GHZ):           0.5560776           0.2855457           0.2176557
 Leave Link  202 at Mon Jan 31 14:19:09 2022, MaxMem= 14763950080 cpu:               0.3 elap:               0.0
 (Enter /lustre1/prg/gaussian/bin/G16_C01_Linda_AVX/g16/l301.exe)
 Standard basis: CC-pVDZ (5D, 7F)
 Ernie: Thresh=  0.10000D-02 Tol=  0.10000D-05 Strict=F.
 Ernie:  40 primitive shells out of 495 were deleted.
   335 basis functions,   737 primitive gaussians,   355 cartesian basis functions
    69 alpha electrons       69 beta electrons
       nuclear repulsion energy      1473.2176186076 Hartrees.
 IExCor= 4336 DFT=T Ex+Corr=M062X ExCW=0 ScaHFX=  0.540000
 ScaDFX=  1.000000  1.000000  1.000000  1.000000 ScalE2=  1.000000  1.000000
 IRadAn=      5 IRanWt=     -1 IRanGd=            0 ICorTp=0 IEmpDi=  4
 NAtoms=   31 NActive=   31 NUniq=   31 SFac= 1.00D+00 NAtFMM=   60 NAOKFM=F Big=F
 Integral buffers will be    131072 words long.
 Regular integral format.
 Two-electron integral symmetry is turned off.
 ------------------------------------------------------------------------------
 Polarizable Continuum Model (PCM)
 =================================
 Model                : C-PCM.
 Atomic radii         : UFF (Universal Force Field).
 Polarization charges : Total charges.
 Charge compensation  : None.
 Solution method      : On-the-fly selection.
 Cavity type          : Scaled VdW (van der Waals Surface) (Alpha=1.100).
 Cavity algorithm     : GePol (No added spheres)
                        Default sphere list used, NSphG=   31.
                        Lebedev-Laikov grids with approx.  5.0 points / Ang**2.
                        Smoothing algorithm: York/Karplus (Gamma=1.0000).
                        Polarization charges: spherical gaussians, with
                                              point-specific exponents (IZeta= 3).
                        Self-potential: point-specific (ISelfS= 7).
                        Self-field    : sphere-specific E.n sum rule (ISelfD= 2).
 1st derivatives      : Analytical E(r).r(x)/FMM algorithm (CHGder, D1EAlg=3).
                        Cavity 1st derivative terms included.
 Solvent              : Methanol, Eps=  32.613000 Eps(inf)=   1.765709
 ------------------------------------------------------------------------------
 GePol: Number of generator spheres                  =      31
 GePol: Total number of spheres                      =      31
 GePol: Number of exposed spheres                    =      31 (100.00%)
 GePol: Number of points                             =    2486
 GePol: Average weight of points                     =       0.13
 GePol: Minimum weight of points                     =   0.57D-10
 GePol: Maximum weight of points                     =    0.20577
 GePol: Number of points with low weight             =     173
 GePol: Fraction of low-weight points (<1% of avg)   =       6.96%
 GePol: Cavity surface area                          =    312.036 Ang**2
 GePol: Cavity volume                                =    344.106 Ang**3
 Leave Link  301 at Mon Jan 31 14:19:09 2022, MaxMem= 14763950080 cpu:               2.2 elap:               0.2
Warning: Permanently added 'fizika111.fizika.bullx' (ECDSA) to the list of known hosts.
Warning: Permanently added 'fizika113.fizika.bullx' (ECDSA) to the list of known hosts.
Warning: Permanently added 'fizika112.fizika.bullx' (ECDSA) to the list of known hosts.
 (Enter /lustre1/prg/gaussian/bin/G16_C01_Linda_AVX/g16/linda-exe/l302.exel)
 NPDir=0 NMtPBC=     1 NCelOv=     1 NCel=       1 NClECP=     1 NCelD=      1
         NCelK=      1 NCelE2=     1 NClLst=     1 CellRange=     0.0.
 One-electron integrals computed using PRISM.
 NBasis=   335 RedAO= T EigKep=  3.00D-04  NBF=   335
 NBsUse=   335 1.00D-06 EigRej= -1.00D+00 NBFU=   335
 Precomputing XC quadrature grid using
 IXCGrd= 4 IRadAn=           5 IRanWt=          -1 IRanGd=           0 AccXCQ= 0.00D+00.
 Generated NRdTot=       0 NPtTot=           0 NUsed=           0 NTot=          32
 NSgBfM=   354   354   354   354   354 MxSgAt=    31 MxSgA2=    31.
 Leave Link  302 at Mon Jan 31 14:19:12 2022, MaxMem= 14763950080 cpu:              15.0 elap:               1.0
 (Enter /lustre1/prg/gaussian/bin/G16_C01_Linda_AVX/g16/l303.exe)
 DipDrv:  MaxL=1.
 Leave Link  303 at Mon Jan 31 14:19:12 2022, MaxMem= 14763950080 cpu:               1.8 elap:               0.1
 (Enter /lustre1/prg/gaussian/bin/G16_C01_Linda_AVX/g16/l308.exe)
 Leave Link  308 at Mon Jan 31 14:19:12 2022, MaxMem= 14763950080 cpu:               2.1 elap:               0.2
 (Enter /lustre1/prg/gaussian/bin/G16_C01_Linda_AVX/g16/linda-exe/l401.exel)
 ExpMin= 9.54D-02 ExpMax= 1.47D+04 ExpMxC= 5.03D+02 IAcc=3 IRadAn=         5 AccDes= 0.00D+00
 Harris functional with IExCor= 1009 and IRadAn=       5 diagonalized for initial guess.
 HarFok:  IExCor= 1009 AccDes= 0.00D+00 IRadAn=         5 IDoV= 1 UseB2=F ITyADJ=14
 ICtDFT=  3500011 ScaDFX=  1.000000  1.000000  1.000000  1.000000
 FoFCou: FMM=F IPFlag=           0 FMFlag=      100000 FMFlg1=           0
         NFxFlg=           0 DoJE=T BraDBF=F KetDBF=T FulRan=T
         wScrn=  0.000000 ICntrl=       500 IOpCl=  0 I1Cent=   200000004 NGrid=           0
         NMat0=    1 NMatS0=      1 NMatT0=    0 NMatD0=    1 NMtDS0=    0 NMtDT0=    0
 Symmetry not used in FoFCou.
 Harris En= -911.547355225092    
 JPrj=0 DoOrth=F DoCkMO=F.
 Leave Link  401 at Mon Jan 31 14:19:16 2022, MaxMem= 14763950080 cpu:              36.6 elap:               2.4
 (Enter /lustre1/prg/gaussian/bin/G16_C01_Linda_AVX/g16/linda-exe/l502.exel)
 Two-electron integral symmetry not used.
 Closed shell SCF:
 Using DIIS extrapolation, IDIIS=  1040.
 NGot= 14763950080 LenX= 14763688735 LenY= 14763562269
 Requested convergence on RMS density matrix=1.00D-08 within 128 cycles.
 Requested convergence on MAX density matrix=1.00D-06.
 Requested convergence on             energy=1.00D-06.
 No special actions if energy rises.
 Fock matrices will be formed incrementally for  20 cycles.

 Cycle   1  Pass 1  IDiag  1:
 FoFJK:  IHMeth= 1 ICntrl=       0 DoSepK=F KAlg= 0 I1Cent=           0 FoldK=F
 IRaf= 880000000 NMat=       1 IRICut=       1 DoRegI=T DoRafI=F ISym2E= 0 IDoP0=0 IntGTp=1.
 FoFCou: FMM=F IPFlag=           0 FMFlag=      100000 FMFlg1=           0
         NFxFlg=           0 DoJE=F BraDBF=F KetDBF=F FulRan=T
         wScrn=  0.000000 ICntrl=         0 IOpCl=  0 I1Cent=           0 NGrid=           0
         NMat0=    1 NMatS0=      1 NMatT0=    0 NMatD0=    1 NMtDS0=    0 NMtDT0=    0
 Symmetry not used in FoFCou.
 Inv3:  Mode=1 IEnd=    18540588.
 Iteration    1 A*A^-1 deviation from unit magnitude is 4.22D-15 for   2482.
 Iteration    1 A*A^-1 deviation from orthogonality  is 2.76D-15 for   2482    829.
 Iteration    1 A^-1*A deviation from unit magnitude is 4.22D-15 for   2461.
 Iteration    1 A^-1*A deviation from orthogonality  is 1.56D-15 for   2448   1072.
 E= -911.841851664381    
 DIIS: error= 3.06D-02 at cycle   1 NSaved=   1.
 NSaved= 1 IEnMin= 1 EnMin= -911.841851664381     IErMin= 1 ErrMin= 3.06D-02
 ErrMax= 3.06D-02  0.00D+00 EMaxC= 1.00D-01 BMatC= 3.37D-01 BMatP= 3.37D-01
 IDIUse=3 WtCom= 6.94D-01 WtEn= 3.06D-01
 Coeff-Com:  0.100D+01
 Coeff-En:   0.100D+01
 Coeff:      0.100D+01
 Gap=     0.138 Goal=   None    Shift=    0.000
 GapD=    0.138 DampG=1.000 DampE=0.500 DampFc=0.5000 IDamp=-1.
 Damping current iteration by 5.00D-01
 RMSDP=3.69D-03 MaxDP=9.92D-02              OVMax= 1.59D-01

 Cycle   2  Pass 1  IDiag  1:
 RMSU=  1.77D-03    CP:  9.73D-01
 E= -911.999984175886     Delta-E=       -0.158132511505 Rises=F Damp=T
 DIIS: error= 7.93D-03 at cycle   2 NSaved=   2.
 NSaved= 2 IEnMin= 2 EnMin= -911.999984175886     IErMin= 2 ErrMin= 7.93D-03
 ErrMax= 7.93D-03  0.00D+00 EMaxC= 1.00D-01 BMatC= 3.00D-02 BMatP= 3.37D-01
 IDIUse=3 WtCom= 9.21D-01 WtEn= 7.93D-02
 Coeff-Com: -0.741D-01 0.107D+01
 Coeff-En:   0.000D+00 0.100D+01
 Coeff:     -0.683D-01 0.107D+01
 Gap=     0.163 Goal=   None    Shift=    0.000
 RMSDP=1.33D-03 MaxDP=7.01D-02 DE=-1.58D-01 OVMax= 1.23D-01

 Cycle   3  Pass 1  IDiag  1:
 RMSU=  1.11D-03    CP:  9.52D-01  1.36D+00
 E= -912.145033944486     Delta-E=       -0.145049768600 Rises=F Damp=F
 DIIS: error= 7.65D-03 at cycle   3 NSaved=   3.
 NSaved= 3 IEnMin= 3 EnMin= -912.145033944486     IErMin= 3 ErrMin= 7.65D-03
 ErrMax= 7.65D-03  0.00D+00 EMaxC= 1.00D-01 BMatC= 1.64D-02 BMatP= 3.00D-02
 IDIUse=3 WtCom= 9.24D-01 WtEn= 7.65D-02
 Coeff-Com: -0.106D+00 0.481D+00 0.625D+00
 Coeff-En:   0.000D+00 0.000D+00 0.100D+01
 Coeff:     -0.975D-01 0.444D+00 0.653D+00
 Gap=     0.147 Goal=   None    Shift=    0.000
 RMSDP=5.02D-04 MaxDP=2.57D-02 DE=-1.45D-01 OVMax= 5.28D-02

 Cycle   4  Pass 1  IDiag  1:
 RMSU=  3.32D-04    CP:  9.55D-01  1.41D+00  6.71D-01
 E= -912.158816047742     Delta-E=       -0.013782103257 Rises=F Damp=F
 DIIS: error= 3.73D-03 at cycle   4 NSaved=   4.
 NSaved= 4 IEnMin= 4 EnMin= -912.158816047742     IErMin= 4 ErrMin= 3.73D-03
 ErrMax= 3.73D-03  0.00D+00 EMaxC= 1.00D-01 BMatC= 2.95D-03 BMatP= 1.64D-02
 IDIUse=3 WtCom= 9.63D-01 WtEn= 3.73D-02
 Coeff-Com: -0.322D-01 0.886D-01 0.335D+00 0.608D+00
 Coeff-En:   0.000D+00 0.000D+00 0.144D+00 0.856D+00
 Coeff:     -0.310D-01 0.853D-01 0.328D+00 0.618D+00
 Gap=     0.150 Goal=   None    Shift=    0.000
 RMSDP=1.67D-04 MaxDP=8.52D-03 DE=-1.38D-02 OVMax= 1.89D-02

 Cycle   5  Pass 1  IDiag  1:
 RMSU=  6.62D-05    CP:  9.54D-01  1.40D+00  7.67D-01  6.75D-01
 E= -912.161807324876     Delta-E=       -0.002991277133 Rises=F Damp=F
 DIIS: error= 3.62D-04 at cycle   5 NSaved=   5.
 NSaved= 5 IEnMin= 5 EnMin= -912.161807324876     IErMin= 5 ErrMin= 3.62D-04
 ErrMax= 3.62D-04  0.00D+00 EMaxC= 1.00D-01 BMatC= 9.08D-05 BMatP= 2.95D-03
 IDIUse=3 WtCom= 9.96D-01 WtEn= 3.62D-03
 Coeff-Com: -0.692D-02 0.998D-02 0.974D-01 0.252D+00 0.648D+00
 Coeff-En:   0.000D+00 0.000D+00 0.000D+00 0.000D+00 0.100D+01
 Coeff:     -0.690D-02 0.995D-02 0.970D-01 0.251D+00 0.649D+00
 Gap=     0.150 Goal=   None    Shift=    0.000
 RMSDP=2.83D-05 MaxDP=1.69D-03 DE=-2.99D-03 OVMax= 2.87D-03

 Cycle   6  Pass 1  IDiag  1:
 RMSU=  2.00D-05    CP:  9.54D-01  1.41D+00  7.68D-01  7.07D-01  7.77D-01
 E= -912.161889452685     Delta-E=       -0.000082127809 Rises=F Damp=F
 DIIS: error= 6.62D-05 at cycle   6 NSaved=   6.
 NSaved= 6 IEnMin= 6 EnMin= -912.161889452685     IErMin= 6 ErrMin= 6.62D-05
 ErrMax= 6.62D-05  0.00D+00 EMaxC= 1.00D-01 BMatC= 4.95D-06 BMatP= 9.08D-05
 IDIUse=1 WtCom= 1.00D+00 WtEn= 0.00D+00
 Coeff-Com: -0.839D-03-0.101D-02 0.167D-01 0.569D-01 0.247D+00 0.682D+00
 Coeff:     -0.839D-03-0.101D-02 0.167D-01 0.569D-01 0.247D+00 0.682D+00
 Gap=     0.150 Goal=   None    Shift=    0.000
 RMSDP=7.06D-06 MaxDP=2.86D-04 DE=-8.21D-05 OVMax= 5.72D-04

 Cycle   7  Pass 1  IDiag  1:
 RMSU=  5.64D-06    CP:  9.54D-01  1.41D+00  7.69D-01  7.11D-01  8.31D-01
                    CP:  9.06D-01
 E= -912.161894585772     Delta-E=       -0.000005133087 Rises=F Damp=F
 DIIS: error= 2.11D-05 at cycle   7 NSaved=   7.
 NSaved= 7 IEnMin= 7 EnMin= -912.161894585772     IErMin= 7 ErrMin= 2.11D-05
 ErrMax= 2.11D-05  0.00D+00 EMaxC= 1.00D-01 BMatC= 2.40D-07 BMatP= 4.95D-06
 IDIUse=1 WtCom= 1.00D+00 WtEn= 0.00D+00
 Coeff-Com:  0.574D-03-0.138D-02-0.661D-02-0.142D-01-0.107D-01 0.112D+00
 Coeff-Com:  0.921D+00
 Coeff:      0.574D-03-0.138D-02-0.661D-02-0.142D-01-0.107D-01 0.112D+00
 Coeff:      0.921D+00
 Gap=     0.150 Goal=   None    Shift=    0.000
 RMSDP=3.23D-06 MaxDP=9.49D-05 DE=-5.13D-06 OVMax= 3.97D-04

 Cycle   8  Pass 1  IDiag  1:
 RMSU=  1.93D-06    CP:  9.54D-01  1.41D+00  7.69D-01  7.14D-01  8.45D-01
                    CP:  1.01D+00  1.08D+00
 E= -912.161894972895     Delta-E=       -0.000000387123 Rises=F Damp=F
 DIIS: error= 1.84D-05 at cycle   8 NSaved=   8.
 NSaved= 8 IEnMin= 8 EnMin= -912.161894972895     IErMin= 8 ErrMin= 1.84D-05
 ErrMax= 1.84D-05  0.00D+00 EMaxC= 1.00D-01 BMatC= 1.04D-07 BMatP= 2.40D-07
 IDIUse=1 WtCom= 1.00D+00 WtEn= 0.00D+00
 Coeff-Com:  0.387D-03-0.597D-03-0.498D-02-0.130D-01-0.300D-01-0.194D-01
 Coeff-Com:  0.470D+00 0.598D+00
 Coeff:      0.387D-03-0.597D-03-0.498D-02-0.130D-01-0.300D-01-0.194D-01
 Coeff:      0.470D+00 0.598D+00
 Gap=     0.150 Goal=   None    Shift=    0.000
 RMSDP=1.18D-06 MaxDP=4.76D-05 DE=-3.87D-07 OVMax= 1.39D-04

 Cycle   9  Pass 1  IDiag  1:
 RMSU=  7.70D-07    CP:  9.54D-01  1.41D+00  7.69D-01  7.14D-01  8.52D-01
                    CP:  1.02D+00  1.17D+00  7.52D-01
 E= -912.161895092813     Delta-E=       -0.000000119918 Rises=F Damp=F
 DIIS: error= 3.37D-06 at cycle   9 NSaved=   9.
 NSaved= 9 IEnMin= 9 EnMin= -912.161895092813     IErMin= 9 ErrMin= 3.37D-06
 ErrMax= 3.37D-06  0.00D+00 EMaxC= 1.00D-01 BMatC= 4.62D-09 BMatP= 1.04D-07
 IDIUse=1 WtCom= 1.00D+00 WtEn= 0.00D+00
 Coeff-Com:  0.597D-04-0.428D-04-0.816D-03-0.247D-02-0.749D-02-0.176D-01
 Coeff-Com:  0.510D-01 0.179D+00 0.798D+00
 Coeff:      0.597D-04-0.428D-04-0.816D-03-0.247D-02-0.749D-02-0.176D-01
 Coeff:      0.510D-01 0.179D+00 0.798D+00
 Gap=     0.150 Goal=   None    Shift=    0.000
 RMSDP=3.92D-07 MaxDP=1.33D-05 DE=-1.20D-07 OVMax= 5.10D-05

 Cycle  10  Pass 1  IDiag  1:
 RMSU=  2.59D-07    CP:  9.54D-01  1.41D+00  7.69D-01  7.14D-01  8.52D-01
                    CP:  1.03D+00  1.20D+00  8.51D-01  9.69D-01
 E= -912.161895100456     Delta-E=       -0.000000007643 Rises=F Damp=F
 DIIS: error= 1.60D-06 at cycle  10 NSaved=  10.
 NSaved=10 IEnMin=10 EnMin= -912.161895100456     IErMin=10 ErrMin= 1.60D-06
 ErrMax= 1.60D-06  0.00D+00 EMaxC= 1.00D-01 BMatC= 1.22D-09 BMatP= 4.62D-09
 IDIUse=1 WtCom= 1.00D+00 WtEn= 0.00D+00
 Coeff-Com: -0.242D-04 0.594D-04 0.295D-03 0.609D-03 0.520D-03-0.645D-02
 Coeff-Com: -0.427D-01-0.908D-02 0.362D+00 0.695D+00
 Coeff:     -0.242D-04 0.594D-04 0.295D-03 0.609D-03 0.520D-03-0.645D-02
 Coeff:     -0.427D-01-0.908D-02 0.362D+00 0.695D+00
 Gap=     0.150 Goal=   None    Shift=    0.000
 RMSDP=1.54D-07 MaxDP=6.08D-06 DE=-7.64D-09 OVMax= 1.81D-05

 Cycle  11  Pass 1  IDiag  1:
 RMSU=  9.55D-08    CP:  9.54D-01  1.41D+00  7.69D-01  7.14D-01  8.53D-01
                    CP:  1.03D+00  1.21D+00  8.75D-01  1.09D+00  9.50D-01
 E= -912.161895102070     Delta-E=       -0.000000001613 Rises=F Damp=F
 DIIS: error= 4.14D-07 at cycle  11 NSaved=  11.
 NSaved=11 IEnMin=11 EnMin= -912.161895102070     IErMin=11 ErrMin= 4.14D-07
 ErrMax= 4.14D-07  0.00D+00 EMaxC= 1.00D-01 BMatC= 1.25D-10 BMatP= 1.22D-09
 IDIUse=1 WtCom= 1.00D+00 WtEn= 0.00D+00
 Coeff-Com: -0.197D-04 0.313D-04 0.252D-03 0.655D-03 0.146D-02 0.884D-04
 Coeff-Com: -0.257D-01-0.348D-01 0.400D-01 0.284D+00 0.734D+00
 Coeff:     -0.197D-04 0.313D-04 0.252D-03 0.655D-03 0.146D-02 0.884D-04
 Coeff:     -0.257D-01-0.348D-01 0.400D-01 0.284D+00 0.734D+00
 Gap=     0.150 Goal=   None    Shift=    0.000
 RMSDP=5.90D-08 MaxDP=1.56D-06 DE=-1.61D-09 OVMax= 1.03D-05

 Cycle  12  Pass 1  IDiag  1:
 RMSU=  3.39D-08    CP:  9.54D-01  1.41D+00  7.69D-01  7.14D-01  8.53D-01
                    CP:  1.03D+00  1.21D+00  8.80D-01  1.13D+00  1.06D+00
                    CP:  9.97D-01
 E= -912.161895102267     Delta-E=       -0.000000000197 Rises=F Damp=F
 DIIS: error= 1.31D-07 at cycle  12 NSaved=  12.
 NSaved=12 IEnMin=12 EnMin= -912.161895102267     IErMin=12 ErrMin= 1.31D-07
 ErrMax= 1.31D-07  0.00D+00 EMaxC= 1.00D-01 BMatC= 7.06D-12 BMatP= 1.25D-10
 IDIUse=1 WtCom= 1.00D+00 WtEn= 0.00D+00
 Coeff-Com: -0.161D-05 0.120D-05 0.220D-04 0.648D-04 0.236D-03 0.603D-03
 Coeff-Com: -0.351D-03-0.593D-02-0.166D-01-0.460D-02 0.129D+00 0.897D+00
 Coeff:     -0.161D-05 0.120D-05 0.220D-04 0.648D-04 0.236D-03 0.603D-03
 Coeff:     -0.351D-03-0.593D-02-0.166D-01-0.460D-02 0.129D+00 0.897D+00
 Gap=     0.150 Goal=   None    Shift=    0.000
 RMSDP=2.00D-08 MaxDP=5.90D-07 DE=-1.97D-10 OVMax= 4.30D-06

 Cycle  13  Pass 1  IDiag  1:
 RMSU=  1.15D-08    CP:  9.54D-01  1.41D+00  7.69D-01  7.14D-01  8.53D-01
                    CP:  1.03D+00  1.21D+00  8.82D-01  1.14D+00  1.09D+00
                    CP:  1.11D+00  1.17D+00
 E= -912.161895102290     Delta-E=       -0.000000000023 Rises=F Damp=F
 DIIS: error= 8.12D-08 at cycle  13 NSaved=  13.
 NSaved=13 IEnMin=13 EnMin= -912.161895102290     IErMin=13 ErrMin= 8.12D-08
 ErrMax= 8.12D-08  0.00D+00 EMaxC= 1.00D-01 BMatC= 1.87D-12 BMatP= 7.06D-12
 IDIUse=1 WtCom= 1.00D+00 WtEn= 0.00D+00
 Coeff-Com:  0.185D-05-0.344D-05-0.230D-04-0.605D-04-0.894D-04 0.207D-03
 Coeff-Com:  0.284D-02 0.133D-02-0.120D-01-0.422D-01-0.523D-01 0.325D+00
 Coeff-Com:  0.778D+00
 Coeff:      0.185D-05-0.344D-05-0.230D-04-0.605D-04-0.894D-04 0.207D-03
 Coeff:      0.284D-02 0.133D-02-0.120D-01-0.422D-01-0.523D-01 0.325D+00
 Coeff:      0.778D+00
 Gap=     0.150 Goal=   None    Shift=    0.000
 RMSDP=1.00D-08 MaxDP=3.56D-07 DE=-2.32D-11 OVMax= 2.43D-06

 Cycle  14  Pass 1  IDiag  1:
 RMSU=  5.31D-09    CP:  9.54D-01  1.41D+00  7.69D-01  7.14D-01  8.53D-01
                    CP:  1.03D+00  1.21D+00  8.83D-01  1.14D+00  1.10D+00
                    CP:  1.15D+00  1.33D+00  1.13D+00
 E= -912.161895102296     Delta-E=       -0.000000000006 Rises=F Damp=F
 DIIS: error= 3.69D-08 at cycle  14 NSaved=  14.
 NSaved=14 IEnMin=14 EnMin= -912.161895102296     IErMin=14 ErrMin= 3.69D-08
 ErrMax= 3.69D-08  0.00D+00 EMaxC= 1.00D-01 BMatC= 4.11D-13 BMatP= 1.87D-12
 IDIUse=1 WtCom= 1.00D+00 WtEn= 0.00D+00
 Coeff-Com:  0.737D-06-0.104D-05-0.943D-05-0.289D-04-0.607D-04-0.626D-04
 Coeff-Com:  0.759D-03 0.135D-02 0.200D-02-0.905D-02-0.384D-01-0.122D+00
 Coeff-Com:  0.277D+00 0.889D+00
 Coeff:      0.737D-06-0.104D-05-0.943D-05-0.289D-04-0.607D-04-0.626D-04
 Coeff:      0.759D-03 0.135D-02 0.200D-02-0.905D-02-0.384D-01-0.122D+00
 Coeff:      0.277D+00 0.889D+00
 Gap=     0.150 Goal=   None    Shift=    0.000
 RMSDP=4.78D-09 MaxDP=1.46D-07 DE=-6.37D-12 OVMax= 1.12D-06

 Error on total polarization charges =  0.01122
 SCF Done:  E(RM062X) =  -912.161895102     A.U. after   14 cycles
            NFock= 14  Conv=0.48D-08     -V/T= 2.0062
 KE= 9.065158316122D+02 PE=-5.076425236380D+03 EE= 1.784529891058D+03
 Leave Link  502 at Mon Jan 31 14:20:22 2022, MaxMem= 14763950080 cpu:             989.7 elap:              64.5
 (Enter /lustre1/prg/gaussian/bin/G16_C01_Linda_AVX/g16/l801.exe)
 DoSCS=F DFT=T ScalE2(SS,OS)=  1.000000  1.000000
 ExpMin= 9.54D-02 ExpMax= 1.47D+04 ExpMxC= 5.03D+02 IAcc=3 IRadAn=         5 AccDes= 0.00D+00
 HarFok:  IExCor=  205 AccDes= 0.00D+00 IRadAn=         5 IDoV=-2 UseB2=F ITyADJ=14
 ICtDFT= 12500011 ScaDFX=  1.000000  1.000000  1.000000  1.000000
 Largest valence mixing into a core orbital is  7.93D-05
 Largest core mixing into a valence orbital is  4.83D-05
 Range of M.O.s used for correlation:    21   335
 NBasis=   335 NAE=    69 NBE=    69 NFC=    20 NFV=     0
 NROrb=    315 NOA=    49 NOB=    49 NVA=   266 NVB=   266

 **** Warning!!: The largest alpha MO coefficient is  0.13483371D+02

 Leave Link  801 at Mon Jan 31 14:20:23 2022, MaxMem= 14763950080 cpu:               3.4 elap:               0.2
 (Enter /lustre1/prg/gaussian/bin/G16_C01_Linda_AVX/g16/linda-exe/l914.exel)
 RHF ground state
 Keep R1, R2, and R3 ints in memory in canonical form, NReq=4976574685.
 FoFCou: FMM=F IPFlag=           0 FMFlag=           0 FMFlg1=           0
         NFxFlg=           0 DoJE=F BraDBF=F KetDBF=F FulRan=T
         wScrn=  0.000000 ICntrl=       600 IOpCl=  0 I1Cent=           0 NGrid=           0
         NMat0=    1 NMatS0=  56280 NMatT0=    0 NMatD0=    1 NMtDS0=    0 NMtDT0=    0
 Symmetry not used in FoFCou.
 Two-electron integral symmetry not used.
 MDV= 14763950080 DFT=T DoStab=F Mixed=T DoRPA=T DoScal=F NonHer=T
 NEqPCM:  Using equilibrium solvation (IEInf=0, Eps=  32.6130, EpsInf=   1.7657)
 Making orbital integer symmetry assigments:
    24 initial guesses have been made.
 Convergence on wavefunction:    0.000001000000000
 Davidson Disk Diagonalization:  ConvIn= 1.00D-06 SkipCon=T Conv= 1.00D-06.
 Max sub-space:  2000 roots to seek:    24 dimension of matrix:        26068
 Iteration     1 Dimension    24 NMult     0 NNew     24
 CISAX will form    24 AO SS matrices at one time.
 NMat=    24 NSing=    24 JSym2X= 0.
 Excitation Energies [eV] at current iteration:
 Root      1 :     2.334581537390867
 Root      2 :     3.538076258750743
 Root      3 :     3.545795033702626
 Root      4 :     3.998060194953411
 Root      5 :     4.111249196346520
 Root      6 :     5.524156744320855
 Root      7 :     5.604275366194615
 Root      8 :     5.714208406634693
 Root      9 :     5.764319437522738
 Root     10 :     6.082724493434539
 Root     11 :     6.200681660997194
 Root     12 :     6.376933989317870
 Root     13 :     6.804779006930302
 Root     14 :     6.920051556562616
 Root     15 :     6.965709568094065
 Root     16 :     7.071462485270703
 Root     17 :     7.134692792878983
 Root     18 :     7.293056230191950
 Root     19 :     7.334646813437377
 Root     20 :     7.477274154676417
 Root     21 :     7.518709776006131
 Root     22 :     7.703119282657944
 Root     23 :     7.711758679094461
 Root     24 :     8.053154423947753
 Iteration     2 Dimension    36 NMult    24 NNew     12
 CISAX will form    12 AO SS matrices at one time.
 NMat=    12 NSing=    12 JSym2X= 0.
 Root      1 not converged, maximum delta is    0.049810221428522
 Root      2 not converged, maximum delta is    0.032416989105150
 Root      3 not converged, maximum delta is    0.038498763748993
 Root      4 not converged, maximum delta is    0.043591189049478
 Root      5 not converged, maximum delta is    0.052855627374918
 Root      6 not converged, maximum delta is    0.341359613628950
 Excitation Energies [eV] at current iteration:
 Root      1 :     1.917654599224115   Change is   -0.416926938166752
 Root      2 :     3.118681027773353   Change is   -0.419395230977391
 Root      3 :     3.296934141333340   Change is   -0.248860892369285
 Root      4 :     3.735294776299341   Change is   -0.262765418654070
 Root      5 :     3.887393180869973   Change is   -0.223856015476548
 Root      6 :     5.421332202406218   Change is   -0.102824541914637
 Iteration     3 Dimension    48 NMult    36 NNew     12
 CISAX will form    12 AO SS matrices at one time.
 NMat=    12 NSing=    12 JSym2X= 0.
 Root      1 not converged, maximum delta is    0.011575579052861
 Root      2 not converged, maximum delta is    0.013824352165324
 Root      3 not converged, maximum delta is    0.007566069673077
 Root      4 not converged, maximum delta is    0.008789717956343
 Root      5 not converged, maximum delta is    0.021154600169060
 Root      6 not converged, maximum delta is    0.363474889976373
 Excitation Energies [eV] at current iteration:
 Root      1 :     1.897155892301551   Change is   -0.020498706922565
 Root      2 :     3.099935764533244   Change is   -0.018745263240108
 Root      3 :     3.288425411196559   Change is   -0.008508730136781
 Root      4 :     3.726337973608802   Change is   -0.008956802690540
 Root      5 :     3.874435315419568   Change is   -0.012957865450404
 Root      6 :     5.266096067598033   Change is   -0.155236134808185
 Iteration     4 Dimension    60 NMult    48 NNew     12
 CISAX will form    12 AO SS matrices at one time.
 NMat=    12 NSing=    12 JSym2X= 0.
 Root      1 not converged, maximum delta is    0.004066834088207
 Root      2 not converged, maximum delta is    0.004958734952670
 Root      3 not converged, maximum delta is    0.002821173414409
 Root      4 not converged, maximum delta is    0.002622006137794
 Root      5 not converged, maximum delta is    0.005714764434288
 Root      6 not converged, maximum delta is    0.022959076879889
 Excitation Energies [eV] at current iteration:
 Root      1 :     1.896028934938778   Change is   -0.001126957362772
 Root      2 :     3.097861812610728   Change is   -0.002073951922516
 Root      3 :     3.287612513131181   Change is   -0.000812898065378
 Root      4 :     3.725202372192034   Change is   -0.001135601416767
 Root      5 :     3.872598417059339   Change is   -0.001836898360230
 Root      6 :     5.246408947042498   Change is   -0.019687120555535
 Iteration     5 Dimension    72 NMult    60 NNew     12
 CISAX will form    12 AO SS matrices at one time.
 NMat=    12 NSing=    12 JSym2X= 0.
 Root      1 not converged, maximum delta is    0.000522508892316
 Root      2 not converged, maximum delta is    0.000537788574319
 Root      3 not converged, maximum delta is    0.000593582315432
 Root      4 not converged, maximum delta is    0.001382861526484
 Root      5 not converged, maximum delta is    0.000459101490271
 Root      6 not converged, maximum delta is    0.006695906778154
 Excitation Energies [eV] at current iteration:
 Root      1 :     1.895980528040541   Change is   -0.000048406898237
 Root      2 :     3.097752152866845   Change is   -0.000109659743884
 Root      3 :     3.287559259094571   Change is   -0.000053254036610
 Root      4 :     3.725106213128359   Change is   -0.000096159063675
 Root      5 :     3.872551430366971   Change is   -0.000046986692367
 Root      6 :     5.243151116181053   Change is   -0.003257830861445
 Iteration     6 Dimension    84 NMult    72 NNew     12
 CISAX will form    12 AO SS matrices at one time.
 NMat=    12 NSing=    12 JSym2X= 0.
 Root      1 not converged, maximum delta is    0.000046169157887
 Root      2 not converged, maximum delta is    0.000085534899510
 Root      3 not converged, maximum delta is    0.000125971207060
 Root      4 not converged, maximum delta is    0.000177763535428
 Root      5 not converged, maximum delta is    0.000056891609166
 Root      6 not converged, maximum delta is    0.001348704697683
 Excitation Energies [eV] at current iteration:
 Root      1 :     1.895978715127282   Change is   -0.000001812913259
 Root      2 :     3.097747286434398   Change is   -0.000004866432446
 Root      3 :     3.287555964327062   Change is   -0.000003294767508
 Root      4 :     3.725100099258453   Change is   -0.000006113869906
 Root      5 :     3.872550061569099   Change is   -0.000001368797872
 Root      6 :     5.242903552202614   Change is   -0.000247563978439
 Iteration     7 Dimension    96 NMult    84 NNew     12
 CISAX will form    12 AO SS matrices at one time.
 NMat=    12 NSing=    12 JSym2X= 0.
 Root      1 not converged, maximum delta is    0.000009663753034
 Root      2 not converged, maximum delta is    0.000027820947118
 Root      3 not converged, maximum delta is    0.000014018631634
 Root      4 not converged, maximum delta is    0.000023889255631
 Root      5 not converged, maximum delta is    0.000015376534325
 Root      6 not converged, maximum delta is    0.000512397552322
 Excitation Energies [eV] at current iteration:
 Root      1 :     1.895978675877348   Change is   -0.000000039249934
 Root      2 :     3.097746986636639   Change is   -0.000000299797759
 Root      3 :     3.287555836858168   Change is   -0.000000127468894
 Root      4 :     3.725099793591789   Change is   -0.000000305666664
 Root      5 :     3.872549987637125   Change is   -0.000000073931974
 Root      6 :     5.242880928941912   Change is   -0.000022623260702
 Iteration     8 Dimension   108 NMult    96 NNew     12
 CISAX will form    12 AO SS matrices at one time.
 NMat=    12 NSing=    12 JSym2X= 0.
 Root      1 not converged, maximum delta is    0.000001084416076
 Root      2 not converged, maximum delta is    0.000004863033728
 Root      3 not converged, maximum delta is    0.000003649038716
 Root      4 not converged, maximum delta is    0.000003738746085
 Root      5 not converged, maximum delta is    0.000002918137131
 Root      6 not converged, maximum delta is    0.000164646187839
 Excitation Energies [eV] at current iteration:
 Root      1 :     1.895978674915518   Change is   -0.000000000961830
 Root      2 :     3.097746976642727   Change is   -0.000000009993912
 Root      3 :     3.287555833313191   Change is   -0.000000003544978
 Root      4 :     3.725099780627735   Change is   -0.000000012964054
 Root      5 :     3.872549984459721   Change is   -0.000000003177404
 Root      6 :     5.242878847778577   Change is   -0.000002081163335
 Iteration     9 Dimension   120 NMult   108 NNew     12
 CISAX will form    12 AO SS matrices at one time.
 NMat=    12 NSing=    12 JSym2X= 0.
 Root      1 has converged.
 Root      2 has converged.
 Root      3 has converged.
 Root      4 not converged, maximum delta is    0.000002027844587
 Root      5 has converged.
 Root      6 not converged, maximum delta is    0.000050747518740
 Excitation Energies [eV] at current iteration:
 Root      1 :     1.895978674901687   Change is   -0.000000000013831
 Root      2 :     3.097746976239830   Change is   -0.000000000402898
 Root      3 :     3.287555833231647   Change is   -0.000000000081544
 Root      4 :     3.725099779170682   Change is   -0.000000001457053
 Root      5 :     3.872549984368949   Change is   -0.000000000090772
 Root      6 :     5.242878665093699   Change is   -0.000000182684878
 Iteration    10 Dimension   124 NMult   120 NNew      4
 CISAX will form     4 AO SS matrices at one time.
 NMat=     4 NSing=     4 JSym2X= 0.
 Root      1 has converged.
 Root      2 has converged.
 Root      3 has converged.
 Root      4 has converged.
 Root      5 has converged.
 Root      6 not converged, maximum delta is    0.000016833152673
 Excitation Energies [eV] at current iteration:
 Root      1 :     1.895978674901730   Change is    0.000000000000043
 Root      2 :     3.097746976234947   Change is   -0.000000000004883
 Root      3 :     3.287555833231672   Change is    0.000000000000025
 Root      4 :     3.725099779115642   Change is   -0.000000000055039
 Root      5 :     3.872549984368907   Change is   -0.000000000000042
 Root      6 :     5.242878651623146   Change is   -0.000000013470554
 Iteration    11 Dimension   126 NMult   124 NNew      2
 CISAX will form     2 AO SS matrices at one time.
 NMat=     2 NSing=     2 JSym2X= 0.
 Root      1 has converged.
 Root      2 has converged.
 Root      3 has converged.
 Root      4 has converged.
 Root      5 has converged.
 Root      6 not converged, maximum delta is    0.000009838666307
 Excitation Energies [eV] at current iteration:
 Root      1 :     1.895978674901817   Change is    0.000000000000087
 Root      2 :     3.097746976234974   Change is    0.000000000000026
 Root      3 :     3.287555833231622   Change is   -0.000000000000050
 Root      4 :     3.725099779115577   Change is   -0.000000000000066
 Root      5 :     3.872549984368949   Change is    0.000000000000042
 Root      6 :     5.242878650629655   Change is   -0.000000000993490
 Iteration    12 Dimension   128 NMult   126 NNew      2
 CISAX will form     2 AO SS matrices at one time.
 NMat=     2 NSing=     2 JSym2X= 0.
 Root      1 has converged.
 Root      2 has converged.
 Root      3 has converged.
 Root      4 has converged.
 Root      5 has converged.
 Root      6 not converged, maximum delta is    0.000005493405138
 Excitation Energies [eV] at current iteration:
 Root      1 :     1.895978674901687   Change is   -0.000000000000130
 Root      2 :     3.097746976234895   Change is   -0.000000000000079
 Root      3 :     3.287555833231572   Change is   -0.000000000000050
 Root      4 :     3.725099779115555   Change is   -0.000000000000022
 Root      5 :     3.872549984368928   Change is   -0.000000000000021
 Root      6 :     5.242878650499402   Change is   -0.000000000130253
 Iteration    13 Dimension   130 NMult   128 NNew      2
 CISAX will form     2 AO SS matrices at one time.
 NMat=     2 NSing=     2 JSym2X= 0.
 Root      1 has converged.
 Root      2 has converged.
 Root      3 has converged.
 Root      4 has converged.
 Root      5 has converged.
 Root      6 not converged, maximum delta is    0.000002118518533
 Excitation Energies [eV] at current iteration:
 Root      1 :     1.895978674901644   Change is   -0.000000000000043
 Root      2 :     3.097746976234841   Change is   -0.000000000000053
 Root      3 :     3.287555833231572   Change is    0.000000000000000
 Root      4 :     3.725099779115445   Change is   -0.000000000000110
 Root      5 :     3.872549984368970   Change is    0.000000000000042
 Root      6 :     5.242878650472590   Change is   -0.000000000026813
 Iteration    14 Dimension   132 NMult   130 NNew      2
 CISAX will form     2 AO SS matrices at one time.
 NMat=     2 NSing=     2 JSym2X= 0.
 Root      1 has converged.
 Root      2 has converged.
 Root      3 has converged.
 Root      4 has converged.
 Root      5 has converged.
 Root      6 has converged.
 Excitation Energies [eV] at current iteration:
 Root      1 :     1.895978674901600   Change is   -0.000000000000043
 Root      2 :     3.097746976234815   Change is   -0.000000000000026
 Root      3 :     3.287555833231522   Change is   -0.000000000000050
 Root      4 :     3.725099779115378   Change is   -0.000000000000066
 Root      5 :     3.872549984368928   Change is   -0.000000000000042
 Root      6 :     5.242878650466679   Change is   -0.000000000005911
 Convergence achieved on expansion vectors.
 ***********************************************************************
 Excited states from <AA,BB:AA,BB> singles matrix:
 ***********************************************************************
 
 1PDM for each excited state written to RWF  633
 Ground to excited state transition densities written to RWF  633
 Ground to excited state transition electric dipole moments (Au):
       state          X           Y           Z        Dip. S.      Osc.
         1        -1.5257      0.3455     -2.0077      6.4779      0.3009
         2        -2.4577      0.4973      1.9476     10.0808      0.7651
         3         0.4032     -0.0906      0.5303      0.4520      0.0364
         4         0.3227      0.2746     -0.1992      0.2192      0.0200
         5         0.3955     -0.0895      0.5211      0.4360      0.0414
         6        -0.5948      0.0919      0.4737      0.5866      0.0754
 Ground to excited state transition velocity dipole moments (Au):
       state          X           Y           Z        Dip. S.      Osc.
         1         0.1082     -0.0245      0.1424      0.0326      0.3119
         2         0.2816     -0.0599     -0.2237      0.1329      0.7784
         3        -0.0511      0.0115     -0.0672      0.0072      0.0400
         4        -0.0467     -0.0376      0.0292      0.0044      0.0217
         5        -0.0609      0.0138     -0.0802      0.0103      0.0484
         6         0.1170     -0.0202     -0.0936      0.0229      0.0791
 Ground to excited state transition magnetic dipole moments (Au):
       state          X           Y           Z
         1        -0.0540      1.3664      0.2765
         2         0.1914     -0.0301      0.2495
         3        -0.2981      0.5072      0.3139
         4        -0.1220      0.0229     -0.1621
         5        -0.1755     -1.5215     -0.1275
         6         0.0786     -0.0205      0.1018
 Ground to excited state transition velocity quadrupole moments (Au):
       state          XX          YY          ZZ          XY          XZ          YZ
         1        -0.3994      0.0425      0.3664     -0.0487     -0.1236     -0.1549
         2        -2.9149      0.0587     -1.4765      0.3113      2.8547     -0.3601
         3         0.4561     -0.0396     -0.4209      0.0366      0.1400      0.1517
         4         0.1770      0.0397      0.0660      0.1814     -0.0920     -0.1356
         5         0.9578      0.0182     -0.9818     -0.1485      0.2577      0.0311
         6        -2.1041      0.0062     -1.3413      0.2756      1.5623     -0.1877
 <0|del|b> * <b|rxdel|0> + <0|del|b> * <b|delr+rdel|0>
 Rotatory Strengths (R) in cgs (10**-40 erg-esu-cm/Gauss)
       state          XX          YY          ZZ    R(velocity)    E-M Angle
         1       -20.7524    120.2947    -99.1908      0.1171       90.00
         2       147.3513   -104.6379    -43.2642     -0.1836       90.00
         3       -56.5466    -32.6139     88.9799     -0.0602       90.00
         4        -9.7038      5.1753      5.0711      0.1809       89.56
         5        -5.8564     17.6578    -11.9815     -0.0600       90.00
         6        -6.0181      6.3939     -0.0793      0.0988       90.00
 1/2[<0|r|b>*<b|rxdel|0> + (<0|rxdel|b>*<b|r|0>)*]
 Rotatory Strengths (R) in cgs (10**-40 erg-esu-cm/Gauss)
       state          XX          YY          ZZ     R(length)
         1       -58.3036   -333.8504    392.6028      0.1496
         2       332.6412     10.5969   -343.5662     -0.1094
         3        85.0067     32.4929   -117.7110     -0.0705
         4        27.8358     -4.4477    -22.8323      0.1853
         5        49.0882    -96.2981     46.9927     -0.0724
         6        33.0435      1.3332    -34.1099      0.0889
  1/2[<0|del|b>*<b|r|0> + (<0|r|b>*<b|del|0>)*] (Au)
       state          X           Y           Z        Dip. S.   Osc.(frdel)
         1        -0.1651     -0.0085     -0.2859      0.4596      0.3064
         2        -0.6921     -0.0298     -0.4356      1.1575      0.7717
         3        -0.0206     -0.0010     -0.0356      0.0572      0.0382
         4        -0.0151     -0.0103     -0.0058      0.0312      0.0208
         5        -0.0241     -0.0012     -0.0418      0.0671      0.0447
         6        -0.0696     -0.0019     -0.0443      0.1158      0.0772

 Excitation energies and oscillator strengths:
 
 Excited state symmetry could not be determined.
 Excited State   1:      Singlet-?Sym    1.8960 eV  653.93 nm  f=0.3009  <S**2>=0.000
      69 -> 70         0.70123
 This state for optimization and/or second-order correction.
 Total Energy, E(TD-HF/TD-DFT) =  -912.092219168    
 Copying the excited state density for this state as the 1-particle RhoCI density.
 
 Excited state symmetry could not be determined.
 Excited State   2:      Singlet-?Sym    3.0977 eV  400.24 nm  f=0.7651  <S**2>=0.000
      68 -> 70         0.69972
 
 Excited state symmetry could not be determined.
 Excited State   3:      Singlet-?Sym    3.2876 eV  377.13 nm  f=0.0364  <S**2>=0.000
      67 -> 70         0.70241
 
 Excited state symmetry could not be determined.
 Excited State   4:      Singlet-?Sym    3.7251 eV  332.83 nm  f=0.0200  <S**2>=0.000
      66 -> 70         0.70062
 
 Excited state symmetry could not be determined.
 Excited State   5:      Singlet-?Sym    3.8725 eV  320.16 nm  f=0.0414  <S**2>=0.000
      65 -> 70         0.69490
 
 Excited state symmetry could not be determined.
 Excited State   6:      Singlet-?Sym    5.2429 eV  236.48 nm  f=0.0754  <S**2>=0.000
      64 -> 70         0.68014
 SavETr:  write IOETrn=   770 NScale= 10 NData=  16 NLR=1 NState=    6 LETran=     118.
 The selected state is a singlet.
 CISGrd: IGrad=2 NXY=2 DFT=T
 CISAX will form     1 AO SS matrices at one time.
 NMat=     1 NSing=     1 JSym2X= 0.
 GePol: Maximum number of non-zero 1st derivatives   =     218
 Leave Link  914 at Mon Jan 31 14:25:45 2022, MaxMem= 14763950080 cpu:            4184.7 elap:             321.3
 (Enter /lustre1/prg/gaussian/bin/G16_C01_Linda_AVX/g16/linda-exe/l1002.exel)
 Minotr:  Closed shell wavefunction.
          Computing CIS/TDA/TD derivatives.
          Using Z-Vector for PSCF gradient.
          Skipping F1 and S1 gradient terms here.
          IDoAtm=1111111111111111111111111111111
 NEqPCM:  Using equilibrium solvation (IEInf=0, Eps=  32.6130, EpsInf=   1.7657)
          Frozen-core window.
          Direct CPHF calculation.
          Differentiating once with respect to electric field.
                with respect to dipole field.
          Differentiating once with respect to nuclear coordinates.
          Requested convergence is 1.0D-10 RMS, and 1.0D-09 maximum.
          NewPWx=F KeepS1=T KeepF1=T KeepIn=T MapXYZ=F SortEE=F KeepMc=T.
 Keep R1 ints in memory in canonical form, NReq=1606312046.
 FoFCou: FMM=F IPFlag=           0 FMFlag=           0 FMFlg1=           0
         NFxFlg=           0 DoJE=F BraDBF=F KetDBF=F FulRan=T
         wScrn=  0.000000 ICntrl=       600 IOpCl=  0 I1Cent=           0 NGrid=           0
         NMat0=    1 NMatS0=  56280 NMatT0=    0 NMatD0=    1 NMtDS0=    0 NMtDT0=    0
 Symmetry not used in FoFCou.
 Two-electron integral symmetry not used.
          MDV=   14763950080 using IRadAn=       5.
          Solving linear equations separately, MaxMat=       0.
          There are     1 degrees of freedom in the 1st order CPHF.  IDoFFX=0 NUNeed=     1.
 LinEq1:  Iter=  0 NonCon=     1 RMS=5.52D-03 Max=4.43D-01 NDo=     1
 AX will form     1 AO Fock derivatives at one time.
 LinEq1:  Iter=  1 NonCon=     1 RMS=2.00D-03 Max=1.34D-01 NDo=     1
 LinEq1:  Iter=  2 NonCon=     1 RMS=1.28D-03 Max=6.67D-02 NDo=     1
 LinEq1:  Iter=  3 NonCon=     1 RMS=4.25D-04 Max=1.30D-02 NDo=     1
 LinEq1:  Iter=  4 NonCon=     1 RMS=2.75D-04 Max=1.33D-02 NDo=     1
 LinEq1:  Iter=  5 NonCon=     1 RMS=1.34D-04 Max=6.03D-03 NDo=     1
 LinEq1:  Iter=  6 NonCon=     1 RMS=7.06D-05 Max=2.45D-03 NDo=     1
 LinEq1:  Iter=  7 NonCon=     1 RMS=3.67D-05 Max=1.14D-03 NDo=     1
 LinEq1:  Iter=  8 NonCon=     1 RMS=1.66D-05 Max=5.12D-04 NDo=     1
 LinEq1:  Iter=  9 NonCon=     1 RMS=6.26D-06 Max=2.12D-04 NDo=     1
 LinEq1:  Iter= 10 NonCon=     1 RMS=3.07D-06 Max=1.62D-04 NDo=     1
 LinEq1:  Iter= 11 NonCon=     1 RMS=1.03D-06 Max=4.49D-05 NDo=     1
 LinEq1:  Iter= 12 NonCon=     1 RMS=4.64D-07 Max=2.51D-05 NDo=     1
 LinEq1:  Iter= 13 NonCon=     1 RMS=2.57D-07 Max=1.92D-05 NDo=     1
 LinEq1:  Iter= 14 NonCon=     1 RMS=1.23D-07 Max=7.43D-06 NDo=     1
 LinEq1:  Iter= 15 NonCon=     1 RMS=3.93D-08 Max=1.34D-06 NDo=     1
 LinEq1:  Iter= 16 NonCon=     1 RMS=1.32D-08 Max=5.24D-07 NDo=     1
 LinEq1:  Iter= 17 NonCon=     1 RMS=6.43D-09 Max=2.61D-07 NDo=     1
 LinEq1:  Iter= 18 NonCon=     1 RMS=1.94D-09 Max=7.67D-08 NDo=     1
 LinEq1:  Iter= 19 NonCon=     1 RMS=1.14D-09 Max=4.17D-08 NDo=     1
 LinEq1:  Iter= 20 NonCon=     1 RMS=4.60D-10 Max=1.48D-08 NDo=     1
 LinEq1:  Iter= 21 NonCon=     1 RMS=1.90D-10 Max=7.59D-09 NDo=     1
 LinEq1:  Iter= 22 NonCon=     1 RMS=7.83D-11 Max=2.92D-09 NDo=     1
 LinEq1:  Iter= 23 NonCon=     0 RMS=2.23D-11 Max=7.56D-10 NDo=     1
 Linear equations converged to 1.000D-10 1.000D-09 after    23 iterations.
 End of Minotr F.D. properties file   721 does not exist.
 End of Minotr F.D. properties file   722 does not exist.
 End of Minotr F.D. properties file   788 does not exist.
 Leave Link 1002 at Mon Jan 31 14:29:20 2022, MaxMem= 14763950080 cpu:            1555.0 elap:             210.6
 (Enter /lustre1/prg/gaussian/bin/G16_C01_Linda_AVX/g16/l601.exe)
 Copying SCF densities to generalized density rwf, IOpCl= 0 IROHF=0.

 **********************************************************************

            Population analysis using the SCF Density.

 **********************************************************************

[...]
     1  B    3.391780   0.340394  -0.032750  -0.003194   0.002784   0.000179
     2  N    0.340394   6.193473   0.489491  -0.025967  -0.053732   0.003658
     3  C   -0.032750   0.489491   4.780232   0.405907   0.461880  -0.041693
     4  H   -0.003194  -0.025967   0.405907   0.593152  -0.039376  -0.003378
     5  C    0.002784  -0.053732   0.461880  -0.039376   4.791621   0.414492
     6  H    0.000179   0.003658  -0.041693  -0.003378   0.414492   0.629831
     7  C    0.004247  -0.079009  -0.053619   0.007062   0.531751  -0.039056
     8  H    0.000231   0.003741   0.009039  -0.000074  -0.040031  -0.005926
     9  C   -0.061471   0.431981  -0.136168   0.002987  -0.053035   0.008871
    10  C   -0.013640  -0.046879   0.008417  -0.000631   0.006892  -0.000238
    11  N    0.340540  -0.037469  -0.000225   0.000201  -0.000176   0.000002
    12  C   -0.032770  -0.000223  -0.000067  -0.000039   0.000018  -0.000000
    13  H   -0.003193   0.000201  -0.000039  -0.000006  -0.000001  -0.000000
    14  C    0.002774  -0.000177   0.000018  -0.000001   0.000003   0.000000
    15  H    0.000179   0.000002  -0.000000  -0.000000   0.000000  -0.000000
    16  C    0.004267   0.000495   0.000031   0.000003  -0.000034  -0.000000
    17  H    0.000232  -0.000010  -0.000001  -0.000000  -0.000001   0.000000
    18  C   -0.061556  -0.005635   0.000479   0.000044  -0.001365   0.000005
    19  F    0.475191  -0.026759  -0.002622  -0.000156  -0.000077   0.000001
    20  F    0.448211  -0.027186   0.008118   0.003997   0.000543   0.000002
    21  C    0.002982   0.003674  -0.000085   0.000016   0.000798  -0.000006
    22  C   -0.000140   0.000044  -0.000039  -0.000002  -0.000205   0.000011
    23  H    0.000004   0.000009  -0.000115   0.000001   0.000925  -0.000000
    24  C   -0.000006  -0.000005   0.000000  -0.000000  -0.000021   0.000000
    25  H    0.000000   0.000000  -0.000000  -0.000000  -0.000001   0.000000
    26  C   -0.000000   0.000000   0.000000   0.000000   0.000000  -0.000000
    27  C   -0.000006   0.000000  -0.000000  -0.000000  -0.000000   0.000000
    28  H    0.000000  -0.000000   0.000000  -0.000000   0.000000  -0.000000
    29  C   -0.000142  -0.000073   0.000006   0.000000   0.000015  -0.000000
    30  H    0.000003  -0.000002   0.000000   0.000000   0.000000  -0.000000
    31  H    0.000000   0.000000  -0.000000   0.000000   0.000000  -0.000000
               7          8          9         10         11         12
     1  B    0.004247   0.000231  -0.061471  -0.013640   0.340540  -0.032770
     2  N   -0.079009   0.003741   0.431981  -0.046879  -0.037469  -0.000223
     3  C   -0.053619   0.009039  -0.136168   0.008417  -0.000225  -0.000067
     4  H    0.007062  -0.000074   0.002987  -0.000631   0.000201  -0.000039
     5  C    0.531751  -0.040031  -0.053035   0.006892  -0.000176   0.000018
     6  H   -0.039056  -0.005926   0.008871  -0.000238   0.000002  -0.000000
     7  C    4.899104   0.419876   0.457845  -0.091532   0.000493   0.000031
     8  H    0.419876   0.630786  -0.043204  -0.006065  -0.000010  -0.000001
     9  C    0.457845  -0.043204   5.071230   0.296646  -0.005641   0.000482
    10  C   -0.091532  -0.006065   0.296646   5.523383  -0.046867   0.008409
    11  N    0.000493  -0.000010  -0.005641  -0.046867   6.193102   0.489423
    12  C    0.000031  -0.000001   0.000482   0.008409   0.489423   4.780307
    13  H    0.000003  -0.000000   0.000044  -0.000631  -0.025973   0.405888
    14  C   -0.000034  -0.000001  -0.001359   0.006889  -0.053751   0.461991
    15  H   -0.000000   0.000000   0.000005  -0.000237   0.003657  -0.041692
    16  C    0.000234   0.000033   0.006134  -0.091478  -0.078975  -0.053607
    17  H    0.000033   0.000002   0.000128  -0.006087   0.003747   0.009042
    18  C    0.006118   0.000123  -0.059782   0.296515   0.431938  -0.136179
    19  F    0.000073   0.000001  -0.001246   0.002603  -0.026758  -0.002620
    20  F   -0.000109   0.000001  -0.002006   0.000344  -0.027159   0.008095
    21  C   -0.014364  -0.001076  -0.040371   0.374802   0.003663  -0.000086
    22  C   -0.004019   0.002683  -0.023691  -0.083873  -0.000073   0.000006
    23  H    0.003731  -0.000641   0.008103  -0.026660  -0.000002   0.000000
    24  C    0.000639   0.000725   0.000332   0.010828   0.000000  -0.000000
    25  H    0.000013   0.000025   0.000041  -0.000429  -0.000000   0.000000
    26  C   -0.000014  -0.000028  -0.000036   0.000606   0.000000   0.000000
    27  C    0.000009  -0.000006  -0.000320   0.010817  -0.000005   0.000000
    28  H   -0.000000  -0.000000   0.000004  -0.000430   0.000000  -0.000000
    29  C   -0.000097  -0.000117   0.013121  -0.083792   0.000044  -0.000039
    30  H   -0.000029  -0.000002   0.000609  -0.026622   0.000003  -0.000116
    31  H    0.000000   0.000000  -0.000000   0.000011   0.000000  -0.000000
              13         14         15         16         17         18
     1  B   -0.003193   0.002774   0.000179   0.004267   0.000232  -0.061556
     2  N    0.000201  -0.000177   0.000002   0.000495  -0.000010  -0.005635
     3  C   -0.000039   0.000018  -0.000000   0.000031  -0.000001   0.000479
     4  H   -0.000006  -0.000001  -0.000000   0.000003  -0.000000   0.000044
     5  C   -0.000001   0.000003   0.000000  -0.000034  -0.000001  -0.001365
     6  H   -0.000000   0.000000  -0.000000  -0.000000   0.000000   0.000005
     7  C    0.000003  -0.000034  -0.000000   0.000234   0.000033   0.006118
     8  H   -0.000000  -0.000001   0.000000   0.000033   0.000002   0.000123
     9  C    0.000044  -0.001359   0.000005   0.006134   0.000128  -0.059782
    10  C   -0.000631   0.006889  -0.000237  -0.091478  -0.006087   0.296515
    11  N   -0.025973  -0.053751   0.003657  -0.078975   0.003747   0.431938
    12  C    0.405888   0.461991  -0.041692  -0.053607   0.009042  -0.136179
    13  H    0.593163  -0.039352  -0.003379   0.007058  -0.000074   0.002994
    14  C   -0.039352   4.791329   0.414494   0.531820  -0.040000  -0.053070
    15  H   -0.003379   0.414494   0.629815  -0.039068  -0.005918   0.008868
    16  C    0.007058   0.531820  -0.039068   4.898915   0.419881   0.457879
    17  H   -0.000074  -0.040000  -0.005918   0.419881   0.630780  -0.043212
    18  C    0.002994  -0.053070   0.008868   0.457879  -0.043212   5.071981
    19  F   -0.000157  -0.000077   0.000001   0.000073   0.000001  -0.001264
    20  F    0.003980   0.000542   0.000002  -0.000109   0.000001  -0.002007
    21  C    0.000016   0.000800  -0.000006  -0.014333  -0.001062  -0.040368
    22  C    0.000000   0.000014  -0.000000  -0.000095  -0.000118   0.013125
    23  H    0.000000   0.000000  -0.000000  -0.000029  -0.000003   0.000611
    24  C   -0.000000  -0.000000   0.000000   0.000009  -0.000006  -0.000320
    25  H   -0.000000   0.000000  -0.000000  -0.000000  -0.000000   0.000004
    26  C    0.000000   0.000000  -0.000000  -0.000014  -0.000028  -0.000037
    27  C   -0.000000  -0.000021   0.000000   0.000635   0.000719   0.000340
    28  H   -0.000000  -0.000001   0.000000   0.000013   0.000025   0.000041
    29  C   -0.000002  -0.000206   0.000011  -0.004047   0.002749  -0.023838
    30  H    0.000001   0.000927  -0.000001   0.003792  -0.000621   0.008007
    31  H    0.000000   0.000000  -0.000000   0.000000   0.000000  -0.000000
              19         20         21         22         23         24
     1  B    0.475191   0.448211   0.002982  -0.000140   0.000004  -0.000006
     2  N   -0.026759  -0.027186   0.003674   0.000044   0.000009  -0.000005
     3  C   -0.002622   0.008118  -0.000085  -0.000039  -0.000115   0.000000
     4  H   -0.000156   0.003997   0.000016  -0.000002   0.000001  -0.000000
     5  C   -0.000077   0.000543   0.000798  -0.000205   0.000925  -0.000021
     6  H    0.000001   0.000002  -0.000006   0.000011  -0.000000   0.000000
     7  C    0.000073  -0.000109  -0.014364  -0.004019   0.003731   0.000639
     8  H    0.000001   0.000001  -0.001076   0.002683  -0.000641   0.000725
     9  C   -0.001246  -0.002006  -0.040371  -0.023691   0.008103   0.000332
    10  C    0.002603   0.000344   0.374802  -0.083873  -0.026660   0.010828
    11  N   -0.026758  -0.027159   0.003663  -0.000073  -0.000002   0.000000
    12  C   -0.002620   0.008095  -0.000086   0.000006   0.000000  -0.000000
    13  H   -0.000157   0.003980   0.000016   0.000000   0.000000  -0.000000
    14  C   -0.000077   0.000542   0.000800   0.000014   0.000000  -0.000000
    15  H    0.000001   0.000002  -0.000006  -0.000000  -0.000000   0.000000
    16  C    0.000073  -0.000109  -0.014333  -0.000095  -0.000029   0.000009
    17  H    0.000001   0.000001  -0.001062  -0.000118  -0.000003  -0.000006
    18  C   -0.001264  -0.002007  -0.040368   0.013125   0.000611  -0.000320
    19  F    8.829245  -0.016510   0.000167  -0.000003   0.000002  -0.000000
    20  F   -0.016510   8.833835  -0.000001  -0.000000  -0.000000   0.000000
    21  C    0.000167  -0.000001   4.855915   0.476856  -0.040087   0.004479
    22  C   -0.000003  -0.000000   0.476856   4.914554   0.395532   0.518855
    23  H    0.000002  -0.000000  -0.040087   0.395532   0.680318  -0.038699
    24  C   -0.000000   0.000000   0.004479   0.518855  -0.038699   4.705432
    25  H   -0.000000  -0.000000   0.008880  -0.031153  -0.013800   0.395167
    26  C    0.000000  -0.000000  -0.066009  -0.020686   0.009399   0.503691
    27  C   -0.000000   0.000000   0.004437  -0.068688  -0.001018  -0.005098
    28  H   -0.000000  -0.000000   0.008864   0.000227   0.000056   0.008217
    29  C   -0.000003  -0.000000   0.476922  -0.061678   0.009942  -0.068715
    30  H    0.000002  -0.000000  -0.039972   0.009944  -0.000075  -0.001014
    31  H    0.000000  -0.000000  -0.000448   0.009641  -0.000195  -0.043452
              25         26         27         28         29         30
     1  B    0.000000  -0.000000  -0.000006   0.000000  -0.000142   0.000003
     2  N    0.000000   0.000000   0.000000  -0.000000  -0.000073  -0.000002
     3  C   -0.000000   0.000000  -0.000000   0.000000   0.000006   0.000000
     4  H   -0.000000   0.000000  -0.000000  -0.000000   0.000000   0.000000
     5  C   -0.000001   0.000000  -0.000000   0.000000   0.000015   0.000000
     6  H    0.000000  -0.000000   0.000000  -0.000000  -0.000000  -0.000000
     7  C    0.000013  -0.000014   0.000009  -0.000000  -0.000097  -0.000029
     8  H    0.000025  -0.000028  -0.000006  -0.000000  -0.000117  -0.000002
     9  C    0.000041  -0.000036  -0.000320   0.000004   0.013121   0.000609
    10  C   -0.000429   0.000606   0.010817  -0.000430  -0.083792  -0.026622
    11  N   -0.000000   0.000000  -0.000005   0.000000   0.000044   0.000003
    12  C    0.000000   0.000000   0.000000  -0.000000  -0.000039  -0.000116
    13  H   -0.000000   0.000000  -0.000000  -0.000000  -0.000002   0.000001
    14  C    0.000000   0.000000  -0.000021  -0.000001  -0.000206   0.000927
    15  H   -0.000000  -0.000000   0.000000   0.000000   0.000011  -0.000001
    16  C   -0.000000  -0.000014   0.000635   0.000013  -0.004047   0.003792
    17  H   -0.000000  -0.000028   0.000719   0.000025   0.002749  -0.000621
    18  C    0.000004  -0.000037   0.000340   0.000041  -0.023838   0.008007
    19  F   -0.000000   0.000000  -0.000000  -0.000000  -0.000003   0.000002
    20  F   -0.000000  -0.000000   0.000000  -0.000000  -0.000000  -0.000000
    21  C    0.008880  -0.066009   0.004437   0.008864   0.476922  -0.039972
    22  C   -0.031153  -0.020686  -0.068688   0.000227  -0.061678   0.009944
    23  H   -0.013800   0.009399  -0.001018   0.000056   0.009942  -0.000075
    24  C    0.395167   0.503691  -0.005098   0.008217  -0.068715  -0.001014
    25  H    0.669636  -0.046770   0.008221  -0.000225   0.000225   0.000055
    26  C   -0.046770   4.772738   0.503642  -0.046754  -0.020653   0.009384
    27  C    0.008221   0.503642   4.705549   0.395174   0.518805  -0.038688
    28  H   -0.000225  -0.046754   0.395174   0.669598  -0.031192  -0.013770
    29  C    0.000225  -0.020653   0.518805  -0.031192   4.914416   0.395597
    30  H    0.000055   0.009384  -0.038688  -0.013770   0.395597   0.679807
    31  H   -0.012061   0.402620  -0.043461  -0.012060   0.009640  -0.000195
              31
     1  B    0.000000
     2  N    0.000000
     3  C   -0.000000
     4  H    0.000000
     5  C    0.000000
     6  H   -0.000000
     7  C    0.000000
     8  H    0.000000
     9  C   -0.000000
    10  C    0.000011
    11  N    0.000000
    12  C   -0.000000
    13  H    0.000000
    14  C    0.000000
    15  H   -0.000000
    16  C    0.000000
    17  H    0.000000
    18  C   -0.000000
    19  F    0.000000
    20  F   -0.000000
    21  C   -0.000448
    22  C    0.009641
    23  H   -0.000195
    24  C   -0.043452
    25  H   -0.012061
    26  C    0.402620
    27  C   -0.043461
    28  H   -0.012060
    29  C    0.009640
    30  H   -0.000195
    31  H    0.668234
 Mulliken charges:
               1
     1  B    0.194869
     2  N   -0.164036
     3  C    0.103805
     4  H    0.059453
     5  C   -0.023669
     6  H    0.033245
     7  C   -0.049381
     8  H    0.029916
     9  C    0.129769
    10  C   -0.021071
    11  N   -0.163727
    12  C    0.103745
    13  H    0.059458
    14  C   -0.023551
    15  H    0.033267
    16  C   -0.049484
    17  H    0.029801
    18  C    0.129559
    19  F   -0.229105
    20  F   -0.232586
    21  C    0.035004
    22  C   -0.047029
    23  H    0.012690
    24  C    0.008961
    25  H    0.022171
    26  C   -0.001051
    27  C    0.008965
    28  H    0.022212
    29  C   -0.046900
    30  H    0.012975
    31  H    0.021726
 Sum of Mulliken charges =  -0.00000
 Mulliken charges with hydrogens summed into heavy atoms:
               1
     1  B    0.194869
     2  N   -0.164036
     3  C    0.163258
     5  C    0.009577
     7  C   -0.019465
     9  C    0.129769
    10  C   -0.021071
    11  N   -0.163727
    12  C    0.163203
    14  C    0.009716
    16  C   -0.019683
    18  C    0.129559
    19  F   -0.229105
    20  F   -0.232586
    21  C    0.035004
    22  C   -0.034339
    24  C    0.031131
    26  C    0.020675
    27  C    0.031176
    29  C   -0.033925
 Electronic spatial extent (au):  <R**2>=           8571.4494
 Charge=             -0.0000 electrons
 Dipole moment (field-independent basis, Debye):
    X=             -2.9812    Y=             -4.0374    Z=              1.5708  Tot=              5.2588
 Quadrupole moment (field-independent basis, Debye-Ang):
   XX=            -87.8050   YY=           -123.4710   ZZ=            -88.8851
   XY=             -0.1956   XZ=             -0.3084   YZ=             -6.0359
 Traceless Quadrupole moment (field-independent basis, Debye-Ang):
   XX=             12.2487   YY=            -23.4173   ZZ=             11.1686
   XY=             -0.1956   XZ=             -0.3084   YZ=             -6.0359
 Octapole moment (field-independent basis, Debye-Ang**2):
  XXX=            602.2239  YYY=            -54.9087  ZZZ=           -487.3919  XYY=            268.2679
  XXY=             -8.7237  XXZ=           -137.3055  XZZ=            186.9944  YZZ=            -32.9486
  YYZ=           -203.8980  XYZ=             -9.4017
 Hexadecapole moment (field-independent basis, Debye-Ang**3):
 XXXX=          -5570.0366 YYYY=           -562.7959 ZZZZ=          -4124.4464 XXXY=             49.2848
 XXXZ=           1362.7224 YYYX=            168.3768 YYYZ=             -4.9382 ZZZX=           1412.0051
 ZZZY=            -52.2139 XXYY=          -1265.6561 XXZZ=          -1512.8085 YYZZ=           -912.5398
 XXYZ=             77.7593 YYXZ=            644.6570 ZZXY=             20.4355
 N-N= 1.471805797609D+03 E-N=-5.073379594361D+03  KE= 9.065711578259D+02
 No NMR shielding tensors so no spin-rotation constants.
 Leave Link  601 at Mon Jan 31 16:11:10 2022, MaxMem= 14763950080 cpu:               7.3 elap:               0.6
 (Enter /lustre1/prg/gaussian/bin/G16_C01_Linda_AVX/g16/l9999.exe)
 Electronic transition elements 
                 1             2             3             4             5 
      1  -0.912092D+03 -0.912049D+03 -0.912042D+03 -0.912026D+03 -0.912022D+03
      2  -0.157886D+01 -0.242996D+01  0.398230D+00  0.412458D+00  0.396848D+00
      3   0.355814D+00  0.470885D+00 -0.894677D-01  0.263075D+00 -0.946608D-01
      4  -0.207363D+01  0.192502D+01  0.536108D+00 -0.263064D+00  0.525006D+00
      5   0.116745D+00  0.283490D+00 -0.513147D-01 -0.597931D-01 -0.611877D-01
      6  -0.263063D-01 -0.580228D-01  0.115245D-01 -0.365172D-01  0.145478D-01
      7   0.153296D+00 -0.225108D+00 -0.689776D-01  0.383563D-01 -0.809668D-01
      8  -0.451402D-01  0.187766D+00 -0.285699D+00 -0.121369D+00 -0.173436D+00
      9   0.143633D+01 -0.350276D-01  0.579912D+00  0.119400D-01 -0.150039D+01
     10   0.280136D+00  0.242027D+00  0.318379D+00 -0.159528D+00 -0.130437D+00
     11  -0.431074D+00 -0.293642D+01  0.465804D+00  0.305692D+00  0.949253D+00
     12   0.436638D-01  0.574891D-01 -0.400244D-01  0.352715D-01  0.163047D-01
     13   0.395877D+00 -0.147591D+01 -0.440703D+00  0.129180D+00 -0.970290D+00
     14  -0.484065D-01  0.299525D+00  0.369674D-01  0.169003D+00 -0.147671D+00
     15  -0.130949D+00  0.289066D+01  0.151850D+00 -0.191779D+00  0.254639D+00
     16  -0.161261D+00 -0.354797D+00  0.153884D+00 -0.125703D+00  0.391997D-01
                 6 
      1  -0.911970D+03
      2  -0.508441D+00
      3   0.783256D-01
      4   0.395803D+00
      5   0.101274D+00
      6  -0.176094D-01
      7  -0.792080D-01
      8   0.654738D-01
      9  -0.745753D-02
     10   0.868265D-01
     11  -0.193859D+01
     12  -0.171386D-03
     13  -0.125787D+01
     14   0.253853D+00
     15   0.138507D+01
     16  -0.164364D+00
 Unable to Open any file for archive entry.
 1\1\VILNIUS-FIZIKA110\FOpt\RM062X TD-FC\CC-pVDZ\C15H11B1F2N2\TOLISTE\3
 1-Jan-2022\0\\#p m062x cc-pvdz scrf=(cpcm,solvent=Methanol) td=(nstate
 =6,root=1) opt=tight nosymm density=all int=ultrafine fchk\\BDP-phenyl
 , optimized R1 in toluene\\0,1\B,-0.2079132115,0.9770291093,0.34285237
 92\N,-0.0543556744,0.0959302179,1.6094939956\C,1.0596648506,-0.4019259
 563,2.151963608\H,2.034817005,-0.1745367657,1.7274650949\C,0.724461287
 9,-1.2041833146,3.2729278366\H,1.4327028599,-1.7276629002,3.9086211792
 \C,-0.6597595976,-1.1899920114,3.3845264648\H,-1.2671435818,-1.7381660
 728,4.0976921585\C,-1.1563323728,-0.3494097378,2.347699861\C,-2.492856
 4434,-0.0231464672,1.909456634\N,-1.5061028872,0.4240054591,-0.2992777
 591\C,-1.7883086662,0.2414774521,-1.5917120817\H,-1.07720428,0.5296287
 848,-2.3625364803\C,-3.0722244022,-0.3483198751,-1.7187094453\H,-3.560
 1362638,-0.602271517,-2.655322216\C,-3.5627052955,-0.5368469979,-0.433
 1542155\H,-4.4959367454,-1.0127372712,-0.1488761696\C,-2.5849057328,-0
 .0276301593,0.4684566415\F,-0.3683336689,2.3171337513,0.6952650762\F,0
 .8725818025,0.7990473969,-0.509234497\C,-3.6254170397,0.1314059213,2.7
 95764314\C,-3.4715758043,0.0769717001,4.2017031986\H,-2.4833004281,-0.
 0639975222,4.6352023607\C,-4.560032387,0.2384738566,5.0492193095\H,-4.
 4085106662,0.1913765526,6.1280568453\C,-5.8360344992,0.4723645793,4.53
 09437477\C,-6.0013694952,0.5725189479,3.1474822689\H,-6.9847124348,0.7
 887630375,2.7286700764\C,-4.9183550883,0.4122069146,2.2928331304\H,-5.
 0695230447,0.5361432407,1.2221214034\H,-6.688587095,0.5963526469,5.198
 8262803\\Version=ES64L-G16RevC.01\HF=-912.1651177\RMSD=9.250e-09\RMSF=
 1.666e-06\Dipole=-1.1728781,-1.5884226,0.618009\Quadrupole=9.106595,-1
 7.4101843,8.3035893,-0.1454175,-0.229278,-4.4875078\PG=C01 [X(C15H11B1
 F2N2)]\\@
 The archive entry for this job was punched.


 GARBAGE IN, GARBAGE OUT
 Job cpu time:       0 days  0 hours  3 minutes 31.6 seconds.
 Elapsed time:       0 days  1 hours 49 minutes 54.2 seconds.
 File lengths (MBytes):  RWF=    779 Int=      0 D2E=      0 Chk=     37 Scr=      1
 Normal termination of Gaussian 16 at Mon Jan 31 16:11:11 2022.
