 Entering Gaussian System, Link 0=/lustre1/prg/gaussian/bin/G16_C01_Linda9.2_SSE4/g16/g16
 Initial command:
 /lustre1/prg/gaussian/bin/G16_C01_Linda9.2_SSE4/g16/l1.exe "/lustre1/prg/webmo/data/webmo20/toliste/4422/scratch/Gau-1887366.inp" -scrdir="/lustre1/prg/webmo/data/webmo20/toliste/4422/scratch/"
 Default is to use a total of  12 processors:
                               12 via shared-memory
                                1 via Linda
 Entering Link 1 = /lustre1/prg/gaussian/bin/G16_C01_Linda9.2_SSE4/g16/l1.exe PID=   1887367.
  
 Copyright (c) 1988-2019, Gaussian, Inc.  All Rights Reserved.
  
 This is part of the Gaussian(R) 16 program.  It is based on
 the Gaussian(R) 09 system (copyright 2009, Gaussian, Inc.),
 the Gaussian(R) 03 system (copyright 2003, Gaussian, Inc.),
 the Gaussian(R) 98 system (copyright 1998, Gaussian, Inc.),
 the Gaussian(R) 94 system (copyright 1995, Gaussian, Inc.),
 the Gaussian 92(TM) system (copyright 1992, Gaussian, Inc.),
 the Gaussian 90(TM) system (copyright 1990, Gaussian, Inc.),
 the Gaussian 88(TM) system (copyright 1988, Gaussian, Inc.),
 the Gaussian 86(TM) system (copyright 1986, Carnegie Mellon
 University), and the Gaussian 82(TM) system (copyright 1983,
 Carnegie Mellon University). Gaussian is a federally registered
 trademark of Gaussian, Inc.
  
 This software contains proprietary and confidential information,
 including trade secrets, belonging to Gaussian, Inc.
  
 This software is provided under written license and may be
 used, copied, transmitted, or stored only in accord with that
 written license.
  
 The following legend is applicable only to US Government
 contracts under FAR:
  
                    RESTRICTED RIGHTS LEGEND
  
 Use, reproduction and disclosure by the US Government is
 subject to restrictions as set forth in subparagraphs (a)
 and (c) of the Commercial Computer Software - Restricted
 Rights clause in FAR 52.227-19.
  
 Gaussian, Inc.
 340 Quinnipiac St., Bldg. 40, Wallingford CT 06492
  
  
 ---------------------------------------------------------------
 Warning -- This program may not be used in any manner that
 competes with the business of Gaussian, Inc. or will provide
 assistance to any competitor of Gaussian, Inc.  The licensee
 of this program is prohibited from giving any competitor of
 Gaussian, Inc. access to this program.  By using this program,
 the user acknowledges that Gaussian, Inc. is engaged in the
 business of creating and licensing software in the field of
 computational chemistry and represents and warrants to the
 licensee that it is not a competitor of Gaussian, Inc. and that
 it will not use this program in any manner prohibited above.
 ---------------------------------------------------------------
  

 Cite this work as:
 Gaussian 16, Revision C.01,
 M. J. Frisch, G. W. Trucks, H. B. Schlegel, G. E. Scuseria, 
 M. A. Robb, J. R. Cheeseman, G. Scalmani, V. Barone, 
 G. A. Petersson, H. Nakatsuji, X. Li, M. Caricato, A. V. Marenich, 
 J. Bloino, B. G. Janesko, R. Gomperts, B. Mennucci, H. P. Hratchian, 
 J. V. Ortiz, A. F. Izmaylov, J. L. Sonnenberg, D. Williams-Young, 
 F. Ding, F. Lipparini, F. Egidi, J. Goings, B. Peng, A. Petrone, 
 T. Henderson, D. Ranasinghe, V. G. Zakrzewski, J. Gao, N. Rega, 
 G. Zheng, W. Liang, M. Hada, M. Ehara, K. Toyota, R. Fukuda, 
 J. Hasegawa, M. Ishida, T. Nakajima, Y. Honda, O. Kitao, H. Nakai, 
 T. Vreven, K. Throssell, J. A. Montgomery, Jr., J. E. Peralta, 
 F. Ogliaro, M. J. Bearpark, J. J. Heyd, E. N. Brothers, K. N. Kudin, 
 V. N. Staroverov, T. A. Keith, R. Kobayashi, J. Normand, 
 K. Raghavachari, A. P. Rendell, J. C. Burant, S. S. Iyengar, 
 J. Tomasi, M. Cossi, J. M. Millam, M. Klene, C. Adamo, R. Cammi, 
 J. W. Ochterski, R. L. Martin, K. Morokuma, O. Farkas, 
 J. B. Foresman, and D. J. Fox, Gaussian, Inc., Wallingford CT, 2019.
 
 ******************************************
 Gaussian 16:  ES64L-G16RevC.01  3-Jul-2019
                 1-Feb-2022 
 ******************************************
 %LindaWorkers=fizika81,fizika85,fizika86,fizika87,fizika88,fizika89,fizika90,fiz
 ika91
 %chk=bodipy.chk
 SetLPE:  input flags=" -opt "Tsnet.Node.lindarsharg: ssh" "
 SetLPE:    new flags=" -opt "Tsnet.Node.lindarsharg: ssh" -opt 'Tsnet.Node.lindarsharg: ssh'  -nodelist 'fizika81.fizika.bullx fizika85.fizika.bullx fizika86.fizika.bullx fizika87.fizika.bullx fizika88.fizika.bullx fizika89.fizika.bullx fizika90.fizika.bullx fizika91.fizika.bullx' -env GAUSS_MDEF=11408506880 -env GAUSS_EXEDIR="/lustre1/prg/gaussian/bin/G16_C01_Linda9.2_SSE4/g16/bsd:/lustre1/prg/gaussian/bin/G16_C01_Linda9.2_SSE4/g16/private:/lustre1/prg/gaussian/bin/G16_C01_Linda9.2_SSE4/g16""
 Will use up to    8 processors via Linda.
 ----------------------------------------------------------------------
 #p m062x cc-pvdz scrf=(cpcm,solvent=Acetone) td=(nstate=6,root=1) opt=
 tight nosymm density=all int=ultrafine fchk
 ----------------------------------------------------------------------
 1/7=10,18=20,19=15,26=6,38=1/1,3;
 2/9=110,12=2,15=1,17=6,18=5,40=1/2;
 3/5=16,11=9,25=1,30=1,70=2101,71=1,72=19,74=-55,75=-5/1,2,3,8;
 4//1;
 5/5=2,38=5,53=19/2;
 8/6=1,10=1,107=1,108=6/1;
 9/8=1,15=2,30=10,41=6,42=1,70=2/14;
 10/5=4,28=1,31=1/2;
 6/7=2,8=2,9=2,10=2,22=-2/1;
 7/12=6,13=5,14=1,30=1/1,2,3,16;
 1/7=10,18=20,19=15,26=6/3(2);
 2/9=110,15=1/2;
 99//99;
 2/9=110,15=1/2;
 3/5=16,11=9,25=1,30=1,70=2105,71=1,72=19,74=-55,75=-5/1,2,3,8;
 4/5=5,16=3,69=1/1;
 5/5=2,38=5,53=19/2;
 8/6=1,10=1,107=1,108=6/1;
 9/8=1,15=2,30=10,41=6,42=1,49=4,70=2/14;
 10/5=4,28=1,31=1/2;
 7/12=6,13=5,14=1,30=1/1,2,3,16;
 1/7=10,18=20,19=15,26=6/3(-8);
 2/9=110,15=1/2;
 6/7=2,8=2,9=2,10=2,22=-2/1;
 99/9=10/99;
 Leave Link    1 at Tue Feb  1 12:19:58 2022, MaxMem=           0 cpu:               1.3 elap:               0.1
 (Enter /lustre1/prg/gaussian/bin/G16_C01_Linda9.2_SSE4/g16/l101.exe)
 -----------------------------------
 BDP-phenyl, optimized S1 in toluene
 -----------------------------------
 Symbolic Z-matrix:
 Charge =  0 Multiplicity = 1
 B                    -0.02231  -0.31808   0.01333 
 N                    -0.00171  -0.08569   1.54179 
 C                     1.0918    0.04446   2.29711 
 H                     2.08119   0.03819   1.84491 
 C                     0.7197    0.18272   3.66194 
 H                     1.40889   0.30959   4.49193 
 C                    -0.66741   0.14007   3.71363 
 H                    -1.30494   0.25247   4.58505 
 C                    -1.12869  -0.02985   2.37723 
 C                    -2.45225  -0.04016   1.84905 
 N                    -1.46798   0.04399  -0.40749 
 C                    -1.88279   0.18662  -1.66883 
 H                    -1.16857   0.19057  -2.48945 
 C                    -3.29967   0.28411  -1.70166 
 H                    -3.90248   0.3967   -2.59829 
 C                    -3.74698   0.19189  -0.39007 
 H                    -4.77383   0.20989  -0.04061 
 C                    -2.59401   0.05427   0.43543 
 F                     0.89563   0.51262  -0.61981 
 F                     0.24685  -1.65443  -0.28466 
 C                    -3.61113  -0.05792   2.75119 
 C                    -3.65983  -0.9701    3.82109 
 H                    -2.84201  -1.68028   3.95478 
 C                    -4.75117  -0.99431   4.68413 
 H                    -4.77664  -1.71742   5.50007 
 C                    -5.81224  -0.10577   4.50205 
 C                    -5.77179   0.80971   3.44993 
 H                    -6.58902   1.51803   3.30947 
 C                    -4.68401   0.83511   2.58143 
 H                    -4.64371   1.57825   1.78411 
 H                    -6.66629  -0.12526   5.17963 
 
 ITRead=  0  0  0  0  0  0  0  0  0  0  0  0  0  0  0  0  0  0  0  0
 ITRead=  0  0  0  0  0  0  0  0  0  0  0
 MicOpt= -1 -1 -1 -1 -1 -1 -1 -1 -1 -1 -1 -1 -1 -1 -1 -1 -1 -1 -1 -1
 MicOpt= -1 -1 -1 -1 -1 -1 -1 -1 -1 -1 -1
 NAtoms=     31 NQM=       31 NQMF=       0 NMMI=      0 NMMIF=      0
                NMic=       0 NMicF=      0.
                    Isotopes and Nuclear Properties:
 (Nuclear quadrupole moments (NQMom) in fm**2, nuclear magnetic moments (NMagM)
  in nuclear magnetons)

  Atom         1           2           3           4           5           6           7           8           9          10
 IAtWgt=          11          14          12           1          12           1          12           1          12          12
 AtmWgt=  11.0093053  14.0030740  12.0000000   1.0078250  12.0000000   1.0078250  12.0000000   1.0078250  12.0000000  12.0000000
 NucSpn=           3           2           0           1           0           1           0           1           0           0
 AtZEff=  -0.0000000  -0.0000000  -0.0000000  -0.0000000  -0.0000000  -0.0000000  -0.0000000  -0.0000000  -0.0000000  -0.0000000
 NQMom=    4.0590000   2.0440000   0.0000000   0.0000000   0.0000000   0.0000000   0.0000000   0.0000000   0.0000000   0.0000000
 NMagM=    2.6886370   0.4037610   0.0000000   2.7928460   0.0000000   2.7928460   0.0000000   2.7928460   0.0000000   0.0000000
 AtZNuc=   5.0000000   7.0000000   6.0000000   1.0000000   6.0000000   1.0000000   6.0000000   1.0000000   6.0000000   6.0000000

  Atom        11          12          13          14          15          16          17          18          19          20
 IAtWgt=          14          12           1          12           1          12           1          12          19          19
 AtmWgt=  14.0030740  12.0000000   1.0078250  12.0000000   1.0078250  12.0000000   1.0078250  12.0000000  18.9984033  18.9984033
 NucSpn=           2           0           1           0           1           0           1           0           1           1
 AtZEff=  -0.0000000  -0.0000000  -0.0000000  -0.0000000  -0.0000000  -0.0000000  -0.0000000  -0.0000000  -0.0000000  -0.0000000
 NQMom=    2.0440000   0.0000000   0.0000000   0.0000000   0.0000000   0.0000000   0.0000000   0.0000000   0.0000000   0.0000000
 NMagM=    0.4037610   0.0000000   2.7928460   0.0000000   2.7928460   0.0000000   2.7928460   0.0000000   2.6288670   2.6288670
 AtZNuc=   7.0000000   6.0000000   1.0000000   6.0000000   1.0000000   6.0000000   1.0000000   6.0000000   9.0000000   9.0000000

  Atom        21          22          23          24          25          26          27          28          29          30
 IAtWgt=          12          12           1          12           1          12          12           1          12           1
 AtmWgt=  12.0000000  12.0000000   1.0078250  12.0000000   1.0078250  12.0000000  12.0000000   1.0078250  12.0000000   1.0078250
 NucSpn=           0           0           1           0           1           0           0           1           0           1
 AtZEff=  -0.0000000  -0.0000000  -0.0000000  -0.0000000  -0.0000000  -0.0000000  -0.0000000  -0.0000000  -0.0000000  -0.0000000
 NQMom=    0.0000000   0.0000000   0.0000000   0.0000000   0.0000000   0.0000000   0.0000000   0.0000000   0.0000000   0.0000000
 NMagM=    0.0000000   0.0000000   2.7928460   0.0000000   2.7928460   0.0000000   0.0000000   2.7928460   0.0000000   2.7928460
 AtZNuc=   6.0000000   6.0000000   1.0000000   6.0000000   1.0000000   6.0000000   6.0000000   1.0000000   6.0000000   1.0000000

  Atom        31
 IAtWgt=           1
 AtmWgt=   1.0078250
 NucSpn=           1
 AtZEff=  -0.0000000
 NQMom=    0.0000000
 NMagM=    2.7928460
 AtZNuc=   1.0000000
 Leave Link  101 at Tue Feb  1 12:19:59 2022, MaxMem= 11408506880 cpu:               6.9 elap:               0.6
 (Enter /lustre1/prg/gaussian/bin/G16_C01_Linda9.2_SSE4/g16/l103.exe)

 GradGradGradGradGradGradGradGradGradGradGradGradGradGradGradGradGradGrad
 Berny optimization.
 Initialization pass.
                           ----------------------------
                           !    Initial Parameters    !
                           ! (Angstroms and Degrees)  !
 --------------------------                            --------------------------
 ! Name  Definition              Value          Derivative Info.                !
 --------------------------------------------------------------------------------
 ! R1    R(1,2)                  1.5462         estimate D2E/DX2                !
 ! R2    R(1,11)                 1.5486         estimate D2E/DX2                !
 ! R3    R(1,19)                 1.3905         estimate D2E/DX2                !
 ! R4    R(1,20)                 1.3954         estimate D2E/DX2                !
 ! R5    R(2,3)                  1.3354         estimate D2E/DX2                !
 ! R6    R(2,9)                  1.404          estimate D2E/DX2                !
 ! R7    R(3,4)                  1.0878         estimate D2E/DX2                !
 ! R8    R(3,5)                  1.4214         estimate D2E/DX2                !
 ! R9    R(5,6)                  1.0863         estimate D2E/DX2                !
 ! R10   R(5,7)                  1.3887         estimate D2E/DX2                !
 ! R11   R(7,8)                  1.0856         estimate D2E/DX2                !
 ! R12   R(7,9)                  1.4239         estimate D2E/DX2                !
 ! R13   R(9,10)                 1.4251         estimate D2E/DX2                !
 ! R14   R(10,18)                1.4238         estimate D2E/DX2                !
 ! R15   R(10,21)                1.4687         estimate D2E/DX2                !
 ! R16   R(11,12)                1.3354         estimate D2E/DX2                !
 ! R17   R(11,18)                1.4066         estimate D2E/DX2                !
 ! R18   R(12,13)                1.0879         estimate D2E/DX2                !
 ! R19   R(12,14)                1.4206         estimate D2E/DX2                !
 ! R20   R(14,15)                1.0863         estimate D2E/DX2                !
 ! R21   R(14,16)                1.3888         estimate D2E/DX2                !
 ! R22   R(16,17)                1.0848         estimate D2E/DX2                !
 ! R23   R(16,18)                1.4247         estimate D2E/DX2                !
 ! R24   R(21,22)                1.4068         estimate D2E/DX2                !
 ! R25   R(21,29)                1.4062         estimate D2E/DX2                !
 ! R26   R(22,23)                1.0914         estimate D2E/DX2                !
 ! R27   R(22,24)                1.3916         estimate D2E/DX2                !
 ! R28   R(24,25)                1.0905         estimate D2E/DX2                !
 ! R29   R(24,26)                1.3959         estimate D2E/DX2                !
 ! R30   R(26,27)                1.3952         estimate D2E/DX2                !
 ! R31   R(26,31)                1.0904         estimate D2E/DX2                !
 ! R32   R(27,28)                1.0906         estimate D2E/DX2                !
 ! R33   R(27,29)                1.3922         estimate D2E/DX2                !
 ! R34   R(29,30)                1.0907         estimate D2E/DX2                !
 ! A1    A(2,1,11)             104.2368         estimate D2E/DX2                !
 ! A2    A(2,1,19)             110.5806         estimate D2E/DX2                !
 ! A3    A(2,1,20)             110.6387         estimate D2E/DX2                !
 ! A4    A(11,1,19)            110.6626         estimate D2E/DX2                !
 ! A5    A(11,1,20)            110.2405         estimate D2E/DX2                !
 ! A6    A(19,1,20)            110.3381         estimate D2E/DX2                !
 ! A7    A(1,2,3)              125.7825         estimate D2E/DX2                !
 ! A8    A(1,2,9)              125.6983         estimate D2E/DX2                !
 ! A9    A(3,2,9)              108.4737         estimate D2E/DX2                !
 ! A10   A(2,3,4)              120.603          estimate D2E/DX2                !
 ! A11   A(2,3,5)              109.7685         estimate D2E/DX2                !
 ! A12   A(4,3,5)              129.6279         estimate D2E/DX2                !
 ! A13   A(3,5,6)              125.3761         estimate D2E/DX2                !
 ! A14   A(3,5,7)              107.1121         estimate D2E/DX2                !
 ! A15   A(6,5,7)              127.5076         estimate D2E/DX2                !
 ! A16   A(5,7,8)              127.8286         estimate D2E/DX2                !
 ! A17   A(5,7,9)              106.9958         estimate D2E/DX2                !
 ! A18   A(8,7,9)              125.1335         estimate D2E/DX2                !
 ! A19   A(2,9,7)              107.6485         estimate D2E/DX2                !
 ! A20   A(2,9,10)             121.6466         estimate D2E/DX2                !
 ! A21   A(7,9,10)             130.5098         estimate D2E/DX2                !
 ! A22   A(9,10,18)            117.3846         estimate D2E/DX2                !
 ! A23   A(9,10,21)            120.3479         estimate D2E/DX2                !
 ! A24   A(18,10,21)           122.145          estimate D2E/DX2                !
 ! A25   A(1,11,12)            124.8623         estimate D2E/DX2                !
 ! A26   A(1,11,18)            125.8873         estimate D2E/DX2                !
 ! A27   A(12,11,18)           108.4552         estimate D2E/DX2                !
 ! A28   A(11,12,13)           120.5923         estimate D2E/DX2                !
 ! A29   A(11,12,14)           109.8136         estimate D2E/DX2                !
 ! A30   A(13,12,14)           129.5759         estimate D2E/DX2                !
 ! A31   A(12,14,15)           125.4268         estimate D2E/DX2                !
 ! A32   A(12,14,16)           107.1483         estimate D2E/DX2                !
 ! A33   A(15,14,16)           127.4206         estimate D2E/DX2                !
 ! A34   A(14,16,17)           127.4429         estimate D2E/DX2                !
 ! A35   A(14,16,18)           107.0354         estimate D2E/DX2                !
 ! A36   A(17,16,18)           125.5195         estimate D2E/DX2                !
 ! A37   A(10,18,11)           120.9814         estimate D2E/DX2                !
 ! A38   A(10,18,16)           131.4712         estimate D2E/DX2                !
 ! A39   A(11,18,16)           107.5381         estimate D2E/DX2                !
 ! A40   A(10,21,22)           120.1513         estimate D2E/DX2                !
 ! A41   A(10,21,29)           121.3444         estimate D2E/DX2                !
 ! A42   A(22,21,29)           118.5007         estimate D2E/DX2                !
 ! A43   A(21,22,23)           119.2851         estimate D2E/DX2                !
 ! A44   A(21,22,24)           120.6703         estimate D2E/DX2                !
 ! A45   A(23,22,24)           120.0261         estimate D2E/DX2                !
 ! A46   A(22,24,25)           119.5953         estimate D2E/DX2                !
 ! A47   A(22,24,26)           120.2761         estimate D2E/DX2                !
 ! A48   A(25,24,26)           120.1269         estimate D2E/DX2                !
 ! A49   A(24,26,27)           119.6026         estimate D2E/DX2                !
 ! A50   A(24,26,31)           120.1958         estimate D2E/DX2                !
 ! A51   A(27,26,31)           120.2014         estimate D2E/DX2                !
 ! A52   A(26,27,28)           120.1034         estimate D2E/DX2                !
 ! A53   A(26,27,29)           120.3347         estimate D2E/DX2                !
 ! A54   A(28,27,29)           119.5586         estimate D2E/DX2                !
 ! A55   A(21,29,27)           120.6133         estimate D2E/DX2                !
 ! A56   A(21,29,30)           119.5221         estimate D2E/DX2                !
 ! A57   A(27,29,30)           119.8244         estimate D2E/DX2                !
 ! D1    D(11,1,2,3)          -162.9026         estimate D2E/DX2                !
 ! D2    D(11,1,2,9)            19.8349         estimate D2E/DX2                !
 ! D3    D(19,1,2,3)           -43.9469         estimate D2E/DX2                !
 ! D4    D(19,1,2,9)           138.7906         estimate D2E/DX2                !
 ! D5    D(20,1,2,3)            78.6102         estimate D2E/DX2                !
 ! D6    D(20,1,2,9)           -98.6524         estimate D2E/DX2                !
 ! D7    D(2,1,11,12)          169.1902         estimate D2E/DX2                !
 ! D8    D(2,1,11,18)          -22.2185         estimate D2E/DX2                !
 ! D9    D(19,1,11,12)          50.2904         estimate D2E/DX2                !
 ! D10   D(19,1,11,18)        -141.1183         estimate D2E/DX2                !
 ! D11   D(20,1,11,12)         -72.0506         estimate D2E/DX2                !
 ! D12   D(20,1,11,18)          96.5407         estimate D2E/DX2                !
 ! D13   D(1,2,3,4)              2.9299         estimate D2E/DX2                !
 ! D14   D(1,2,3,5)           -177.3007         estimate D2E/DX2                !
 ! D15   D(9,2,3,4)           -179.4137         estimate D2E/DX2                !
 ! D16   D(9,2,3,5)              0.3557         estimate D2E/DX2                !
 ! D17   D(1,2,9,7)            177.4582         estimate D2E/DX2                !
 ! D18   D(1,2,9,10)            -7.1168         estimate D2E/DX2                !
 ! D19   D(3,2,9,7)             -0.2006         estimate D2E/DX2                !
 ! D20   D(3,2,9,10)           175.2243         estimate D2E/DX2                !
 ! D21   D(2,3,5,6)           -179.6786         estimate D2E/DX2                !
 ! D22   D(2,3,5,7)             -0.3767         estimate D2E/DX2                !
 ! D23   D(4,3,5,6)              0.0637         estimate D2E/DX2                !
 ! D24   D(4,3,5,7)            179.3656         estimate D2E/DX2                !
 ! D25   D(3,5,7,8)           -177.4725         estimate D2E/DX2                !
 ! D26   D(3,5,7,9)              0.2402         estimate D2E/DX2                !
 ! D27   D(6,5,7,8)              1.81           estimate D2E/DX2                !
 ! D28   D(6,5,7,9)            179.5227         estimate D2E/DX2                !
 ! D29   D(5,7,9,2)             -0.034          estimate D2E/DX2                !
 ! D30   D(5,7,9,10)          -174.9099         estimate D2E/DX2                !
 ! D31   D(8,7,9,2)            177.757          estimate D2E/DX2                !
 ! D32   D(8,7,9,10)             2.881          estimate D2E/DX2                !
 ! D33   D(2,9,10,18)           -7.4332         estimate D2E/DX2                !
 ! D34   D(2,9,10,21)          176.5061         estimate D2E/DX2                !
 ! D35   D(7,9,10,18)          166.8291         estimate D2E/DX2                !
 ! D36   D(7,9,10,21)           -9.2316         estimate D2E/DX2                !
 ! D37   D(9,10,18,11)           5.2187         estimate D2E/DX2                !
 ! D38   D(9,10,18,16)        -173.518          estimate D2E/DX2                !
 ! D39   D(21,10,18,11)       -178.7964         estimate D2E/DX2                !
 ! D40   D(21,10,18,16)          2.4669         estimate D2E/DX2                !
 ! D41   D(9,10,21,22)         -48.0529         estimate D2E/DX2                !
 ! D42   D(9,10,21,29)         131.2477         estimate D2E/DX2                !
 ! D43   D(18,10,21,22)        136.0786         estimate D2E/DX2                !
 ! D44   D(18,10,21,29)        -44.6208         estimate D2E/DX2                !
 ! D45   D(1,11,12,13)          -8.8275         estimate D2E/DX2                !
 ! D46   D(1,11,12,14)         169.7613         estimate D2E/DX2                !
 ! D47   D(18,11,12,13)       -179.101          estimate D2E/DX2                !
 ! D48   D(18,11,12,14)         -0.5122         estimate D2E/DX2                !
 ! D49   D(1,11,18,10)          11.7687         estimate D2E/DX2                !
 ! D50   D(1,11,18,16)        -169.224          estimate D2E/DX2                !
 ! D51   D(12,11,18,10)       -178.0834         estimate D2E/DX2                !
 ! D52   D(12,11,18,16)          0.9239         estimate D2E/DX2                !
 ! D53   D(11,12,14,15)       -179.3992         estimate D2E/DX2                !
 ! D54   D(11,12,14,16)         -0.1077         estimate D2E/DX2                !
 ! D55   D(13,12,14,15)         -0.9753         estimate D2E/DX2                !
 ! D56   D(13,12,14,16)        178.3163         estimate D2E/DX2                !
 ! D57   D(12,14,16,17)       -178.815          estimate D2E/DX2                !
 ! D58   D(12,14,16,18)          0.6698         estimate D2E/DX2                !
 ! D59   D(15,14,16,17)          0.4581         estimate D2E/DX2                !
 ! D60   D(15,14,16,18)        179.9429         estimate D2E/DX2                !
 ! D61   D(14,16,18,10)        177.8861         estimate D2E/DX2                !
 ! D62   D(14,16,18,11)         -0.9781         estimate D2E/DX2                !
 ! D63   D(17,16,18,10)         -2.6165         estimate D2E/DX2                !
 ! D64   D(17,16,18,11)        178.5194         estimate D2E/DX2                !
 ! D65   D(10,21,22,23)         -1.7071         estimate D2E/DX2                !
 ! D66   D(10,21,22,24)        179.8587         estimate D2E/DX2                !
 ! D67   D(29,21,22,23)        178.9726         estimate D2E/DX2                !
 ! D68   D(29,21,22,24)          0.5384         estimate D2E/DX2                !
 ! D69   D(10,21,29,27)       -179.6554         estimate D2E/DX2                !
 ! D70   D(10,21,29,30)         -1.9676         estimate D2E/DX2                !
 ! D71   D(22,21,29,27)         -0.3436         estimate D2E/DX2                !
 ! D72   D(22,21,29,30)        177.3442         estimate D2E/DX2                !
 ! D73   D(21,22,24,25)        179.2105         estimate D2E/DX2                !
 ! D74   D(21,22,24,26)         -0.3177         estimate D2E/DX2                !
 ! D75   D(23,22,24,25)          0.7878         estimate D2E/DX2                !
 ! D76   D(23,22,24,26)       -178.7403         estimate D2E/DX2                !
 ! D77   D(22,24,26,27)         -0.1076         estimate D2E/DX2                !
 ! D78   D(22,24,26,31)       -179.9429         estimate D2E/DX2                !
 ! D79   D(25,24,26,27)       -179.6332         estimate D2E/DX2                !
 ! D80   D(25,24,26,31)          0.5314         estimate D2E/DX2                !
 ! D81   D(24,26,27,28)       -179.042          estimate D2E/DX2                !
 ! D82   D(24,26,27,29)          0.302          estimate D2E/DX2                !
 ! D83   D(31,26,27,28)          0.7933         estimate D2E/DX2                !
 ! D84   D(31,26,27,29)       -179.8627         estimate D2E/DX2                !
 ! D85   D(26,27,29,21)         -0.0728         estimate D2E/DX2                !
 ! D86   D(26,27,29,30)       -177.7536         estimate D2E/DX2                !
 ! D87   D(28,27,29,21)        179.2748         estimate D2E/DX2                !
 ! D88   D(28,27,29,30)          1.594          estimate D2E/DX2                !
 --------------------------------------------------------------------------------
 Trust Radius=3.00D-01 FncErr=5.00D-06 GrdErr=5.00D-06 EigMax=2.50D+02 EigMin=1.00D-04
 Number of steps in this run=    186 maximum allowed number of steps=    186.
 GradGradGradGradGradGradGradGradGradGradGradGradGradGradGradGradGradGrad

 Leave Link  103 at Tue Feb  1 12:19:59 2022, MaxMem= 11408506880 cpu:               0.2 elap:               0.0
 (Enter /lustre1/prg/gaussian/bin/G16_C01_Linda9.2_SSE4/g16/l202.exe)
                          Input orientation:                          
 ---------------------------------------------------------------------
 Center     Atomic      Atomic             Coordinates (Angstroms)
 Number     Number       Type             X           Y           Z
 ---------------------------------------------------------------------
      1          5           0       -0.022314   -0.318076    0.013326
      2          7           0       -0.001707   -0.085693    1.541792
      3          6           0        1.091803    0.044455    2.297107
      4          1           0        2.081188    0.038188    1.844910
      5          6           0        0.719696    0.182717    3.661938
      6          1           0        1.408889    0.309587    4.491930
      7          6           0       -0.667405    0.140073    3.713632
      8          1           0       -1.304943    0.252470    4.585053
      9          6           0       -1.128691   -0.029848    2.377234
     10          6           0       -2.452248   -0.040163    1.849047
     11          7           0       -1.467979    0.043992   -0.407485
     12          6           0       -1.882790    0.186621   -1.668830
     13          1           0       -1.168572    0.190570   -2.489452
     14          6           0       -3.299670    0.284113   -1.701663
     15          1           0       -3.902475    0.396698   -2.598289
     16          6           0       -3.746979    0.191894   -0.390067
     17          1           0       -4.773831    0.209893   -0.040610
     18          6           0       -2.594010    0.054270    0.435426
     19          9           0        0.895627    0.512622   -0.619808
     20          9           0        0.246848   -1.654425   -0.284657
     21          6           0       -3.611125   -0.057918    2.751186
     22          6           0       -3.659829   -0.970100    3.821089
     23          1           0       -2.842011   -1.680278    3.954782
     24          6           0       -4.751175   -0.994310    4.684132
     25          1           0       -4.776635   -1.717415    5.500070
     26          6           0       -5.812242   -0.105768    4.502054
     27          6           0       -5.771788    0.809705    3.449932
     28          1           0       -6.589016    1.518026    3.309473
     29          6           0       -4.684012    0.835107    2.581429
     30          1           0       -4.643713    1.578247    1.784107
     31          1           0       -6.666295   -0.125256    5.179633
 ---------------------------------------------------------------------
                    Distance matrix (angstroms):
                    1          2          3          4          5
     1  B    0.000000
     2  N    1.546168   0.000000
     3  C    2.566776   1.335366   0.000000
     4  H    2.811822   2.108478   1.087844   0.000000
     5  C    3.756826   2.255545   1.421388   2.275113   0.000000
     6  H    4.743437   3.293834   2.233402   2.744514   1.086264
     7  C    3.783954   2.282764   2.260641   3.325247   1.388719
     8  H    4.782400   3.327794   3.319994   4.361214   2.226246
     9  C    2.625873   1.403985   2.223181   3.254431   2.261014
    10  C    3.058053   2.470148   3.573264   4.534115   3.660257
    11  N    1.548587   2.442632   3.723883   4.203558   4.622269
    12  C    2.558464   3.731048   4.959543   5.299200   5.932119
    13  H    2.799380   4.205808   5.295450   5.419488   6.434689
    14  C    3.747650   4.640400   5.944126   6.449209   6.703268
    15  H    4.731499   5.708674   7.002270   7.461553   7.784645
    16  C    3.780995   4.223292   5.536827   6.243899   6.030756
    17  H    4.781064   5.036322   6.316483   7.111677   6.624835
    18  C    2.632571   2.821998   4.129306   4.883071   4.626827
    19  F    1.390516   2.415720   2.960753   2.775874   4.298039
    20  F    1.395375   2.420458   3.204005   3.280975   4.378846
    21  C    4.521407   3.806744   4.725907   5.764807   4.432086
    22  C    5.306195   4.399912   5.092136   6.154771   4.531507
    23  H    5.034020   4.053708   4.604072   5.625173   4.030169
    24  C    6.681006   5.766917   6.396664   7.470503   5.688647
    25  H    7.393651   6.413300   6.913879   7.966936   6.099089
    26  C    7.329190   6.521186   7.249151   8.329908   6.592058
    27  C    6.792540   6.143010   7.001678   8.052364   6.525138
    28  H    7.573469   7.006372   7.886145   8.916687   7.438048
    29  C    5.445770   4.883922   5.836609   6.851677   5.549160
    30  H    5.299909   4.937168   5.959180   6.899259   5.851488
    31  H    8.418455   7.592904   8.278034   9.362988   7.546596
                    6          7          8          9         10
     6  H    0.000000
     7  C    2.223843   0.000000
     8  H    2.716030   1.085570   0.000000
     9  C    3.320613   1.423944   2.232764   0.000000
    10  C    4.692071   2.587436   2.981220   1.425093   0.000000
    11  N    5.687810   4.199257   4.999548   2.806284   2.463291
    12  C    6.986074   5.518172   6.280867   4.121427   3.570878
    13  H    7.442927   6.223501   7.076090   4.871838   4.530302
    14  C    7.780217   6.022872   6.595660   4.631320   3.664808
    15  H    8.859423   7.097315   7.639920   5.712412   4.698170
    16  C    7.101459   5.130965   5.542475   3.816092   2.596885
    17  H    7.666804   5.564346   5.782020   4.380695   3.003844
    18  C    5.704701   3.803394   4.349756   2.434102   1.423846
    19  F    5.141452   4.621749   5.656922   3.657102   4.196318
    20  F    5.293719   4.476874   5.455124   3.408375   3.800481
    21  C    5.325954   3.103384   2.962749   2.510599   1.468729
    22  C    5.270629   3.193530   2.761124   3.061936   2.492385
    23  H    4.724219   2.846180   2.548595   2.854478   2.697408
    24  C    6.299482   4.348088   3.666169   4.401631   3.772687
    25  H    6.586789   4.850504   4.095162   5.089939   4.641758
    26  C    7.233074   5.210700   4.522275   5.143566   4.281625
    27  C    7.273101   5.154869   4.642382   4.838789   3.782123
    28  H    8.174657   6.093240   5.581233   5.751533   4.655496
    29  C    6.406998   4.230613   3.971408   3.664717   2.506641
    30  H    6.750985   4.647842   4.555257   3.910646   2.725066
    31  H    8.116072   6.181120   5.407430   6.207061   5.371986
                   11         12         13         14         15
    11  N    0.000000
    12  C    1.335441   0.000000
    13  H    2.108487   1.087908   0.000000
    14  C    2.255581   1.420610   2.273970   0.000000
    15  H    3.294054   2.233194   2.743822   1.086272   0.000000
    16  C    2.283861   2.260633   3.324997   1.388839   2.223144
    17  H    3.330282   3.318096   4.358336   2.222106   2.708483
    18  C    1.406610   2.225139   3.256588   2.262285   3.321561
    19  F    2.418952   2.987696   2.803605   4.338565   5.191301
    20  F    2.416679   3.136996   3.204456   4.282946   5.174638
    21  C    3.818463   4.752208   5.787236   4.476813   5.376657
    22  C    4.869643   5.885158   6.883055   5.674818   6.567757
    23  H    4.887785   6.002535   6.915824   6.005302   6.955656
    24  C    6.146707   7.069820   8.105510   6.672302   7.462496
    25  H    6.996354   7.961961   8.971677   7.619219   8.415287
    26  C    6.557333   7.321605   8.398371   6.704560   7.369841
    27  C    5.829987   6.458658   7.539841   5.738166   6.343964
    28  H    6.497197   6.978875   8.048036   6.119953   6.586086
    29  C    4.461204   5.131479   6.203836   4.534851   5.256661
    30  H    4.152385   4.634878   5.680278   3.953711   4.599009
    31  H    7.633284   8.359464   9.441375   7.671635   8.270865
                   16         17         18         19         20
    16  C    0.000000
    17  H    1.084836   0.000000
    18  C    1.424681   2.236615   0.000000
    19  F    4.659339   5.707002   3.674394   0.000000
    20  F    4.401211   5.361199   3.392438   2.286774   0.000000
    21  C    3.154098   3.036072   2.531769   5.656848   5.162280
    22  C    4.369400   4.188807   3.694322   6.532397   5.708553
    23  H    4.816815   4.823674   3.931416   6.301240   5.245432
    24  C    5.306881   4.875839   4.878974   7.892338   7.078478
    25  H    6.276891   5.866316   5.792524   8.637160   7.661750
    26  C    5.318530   4.670518   5.188458   8.462351   7.875501
    27  C    4.384876   3.679616   4.444795   7.816998   7.499538
    28  H    4.849989   4.028544   5.134472   8.512929   8.349326
    29  C    3.181437   2.697044   3.095665   6.440830   6.222990
    30  H    2.730044   2.284495   2.888378   6.131774   6.216715
    31  H    6.296392   5.562794   6.254857   9.551077   8.943622
                   21         22         23         24         25
    21  C    0.000000
    22  C    1.406819   0.000000
    23  H    2.161535   1.091354   0.000000
    24  C    2.431630   1.391569   2.155785   0.000000
    25  H    3.415949   2.150514   2.476301   1.090543   0.000000
    26  C    2.812960   2.417367   3.406004   1.395895   2.160075
    27  C    2.430942   2.786725   3.877948   2.412337   3.402900
    28  H    3.415131   3.877197   4.968462   3.402819   4.307147
    29  C    1.406200   2.417536   3.406791   2.787945   3.878455
    30  H    2.162988   3.407550   4.309982   3.878111   4.968645
    31  H    3.903326   3.405619   4.306217   2.160662   2.491679
                   26         27         28         29         30
    26  C    0.000000
    27  C    1.395238   0.000000
    28  H    2.159244   1.090554   0.000000
    29  C    2.418047   1.392192   2.150690   0.000000
    30  H    3.404204   2.153644   2.472766   1.090689   0.000000
    31  H    1.090367   2.160130   2.490752   3.406231   4.303761
                   31
    31  H    0.000000
 Symmetry turned off by external request.
 Stoichiometry    C15H11BF2N2
 Framework group  C1[X(C15H11BF2N2)]
 Deg. of freedom    87
 Full point group                 C1      NOp   1
 Rotational constants (GHZ):           0.5797333           0.2799164           0.2047989
 Leave Link  202 at Tue Feb  1 12:19:59 2022, MaxMem= 11408506880 cpu:               0.0 elap:               0.0
 (Enter /lustre1/prg/gaussian/bin/G16_C01_Linda9.2_SSE4/g16/l301.exe)
 Standard basis: CC-pVDZ (5D, 7F)
 Ernie: Thresh=  0.10000D-02 Tol=  0.10000D-05 Strict=F.
 Ernie:  40 primitive shells out of 495 were deleted.
   335 basis functions,   737 primitive gaussians,   355 cartesian basis functions
    69 alpha electrons       69 beta electrons
       nuclear repulsion energy      1466.6538474170 Hartrees.
 IExCor= 4336 DFT=T Ex+Corr=M062X ExCW=0 ScaHFX=  0.540000
 ScaDFX=  1.000000  1.000000  1.000000  1.000000 ScalE2=  1.000000  1.000000
 IRadAn=      5 IRanWt=     -1 IRanGd=            0 ICorTp=0 IEmpDi=  4
 NAtoms=   31 NActive=   31 NUniq=   31 SFac= 1.00D+00 NAtFMM=   60 NAOKFM=F Big=F
 Integral buffers will be    131072 words long.
 Regular integral format.
 Two-electron integral symmetry is turned off.
 ------------------------------------------------------------------------------
 Polarizable Continuum Model (PCM)
 =================================
 Model                : C-PCM.
 Atomic radii         : UFF (Universal Force Field).
 Polarization charges : Total charges.
 Charge compensation  : None.
 Solution method      : On-the-fly selection.
 Cavity type          : Scaled VdW (van der Waals Surface) (Alpha=1.100).
 Cavity algorithm     : GePol (No added spheres)
                        Default sphere list used, NSphG=   31.
                        Lebedev-Laikov grids with approx.  5.0 points / Ang**2.
                        Smoothing algorithm: York/Karplus (Gamma=1.0000).
                        Polarization charges: spherical gaussians, with
                                              point-specific exponents (IZeta= 3).
                        Self-potential: point-specific (ISelfS= 7).
                        Self-field    : sphere-specific E.n sum rule (ISelfD= 2).
 1st derivatives      : Analytical E(r).r(x)/FMM algorithm (CHGder, D1EAlg=3).
                        Cavity 1st derivative terms included.
 Solvent              : Acetone, Eps=  20.493000 Eps(inf)=   1.846337
 ------------------------------------------------------------------------------
 GePol: Number of generator spheres                  =      31
 GePol: Total number of spheres                      =      31
 GePol: Number of exposed spheres                    =      31 (100.00%)
 GePol: Number of points                             =    2470
 GePol: Average weight of points                     =       0.13
 GePol: Minimum weight of points                     =   0.30D-11
 GePol: Maximum weight of points                     =    0.20577
 GePol: Number of points with low weight             =     159
 GePol: Fraction of low-weight points (<1% of avg)   =       6.44%
 GePol: Cavity surface area                          =    314.156 Ang**2
 GePol: Cavity volume                                =    345.847 Ang**3
 Leave Link  301 at Tue Feb  1 12:19:59 2022, MaxMem= 11408506880 cpu:               1.5 elap:               0.1
@@@@@@@@@@@@@@@@@@@@@@@@@@@@@@@@@@@@@@@@@@@@@@@@@@@@@@@@@@@
@    WARNING: REMOTE HOST IDENTIFICATION HAS CHANGED!     @
@@@@@@@@@@@@@@@@@@@@@@@@@@@@@@@@@@@@@@@@@@@@@@@@@@@@@@@@@@@
IT IS POSSIBLE THAT SOMEONE IS DOING SOMETHING NASTY!
Someone could be eavesdropping on you right now (man-in-the-middle attack)!
It is also possible that a host key has just been changed.
The fingerprint for the ECDSA key sent by the remote host is
SHA256:pUAANVT+QIHMG3gDTB6Nfy5J4iYg5JWrtVNbA9fVJEg.
Please contact your system administrator.
Add correct host key in /lustre2/home/toliste/.ssh/known_hosts to get rid of this message.
Offending ECDSA key in /lustre2/home/toliste/.ssh/known_hosts:5
Password authentication is disabled to avoid man-in-the-middle attacks.
Keyboard-interactive authentication is disabled to avoid man-in-the-middle attacks.
@@@@@@@@@@@@@@@@@@@@@@@@@@@@@@@@@@@@@@@@@@@@@@@@@@@@@@@@@@@
@    WARNING: REMOTE HOST IDENTIFICATION HAS CHANGED!     @
@@@@@@@@@@@@@@@@@@@@@@@@@@@@@@@@@@@@@@@@@@@@@@@@@@@@@@@@@@@
IT IS POSSIBLE THAT SOMEONE IS DOING SOMETHING NASTY!
Someone could be eavesdropping on you right now (man-in-the-middle attack)!
It is also possible that a host key has just been changed.
The fingerprint for the ECDSA key sent by the remote host is
SHA256:kawKeDCaQe3uT69RUPVXoEKT7IFr2es2tQryEUjuZpQ.
Please contact your system administrator.
Add correct host key in /lustre2/home/toliste/.ssh/known_hosts to get rid of this message.
Offending ECDSA key in /lustre2/home/toliste/.ssh/known_hosts:3
Password authentication is disabled to avoid man-in-the-middle attacks.
Keyboard-interactive authentication is disabled to avoid man-in-the-middle attacks.
@@@@@@@@@@@@@@@@@@@@@@@@@@@@@@@@@@@@@@@@@@@@@@@@@@@@@@@@@@@
@    WARNING: REMOTE HOST IDENTIFICATION HAS CHANGED!     @
@@@@@@@@@@@@@@@@@@@@@@@@@@@@@@@@@@@@@@@@@@@@@@@@@@@@@@@@@@@
IT IS POSSIBLE THAT SOMEONE IS DOING SOMETHING NASTY!
Someone could be eavesdropping on you right now (man-in-the-middle attack)!
It is also possible that a host key has just been changed.
The fingerprint for the ECDSA key sent by the remote host is
SHA256:JMBYVXRfK2n6y2yXsPI58zcerXQch0mAkBCLx2EQCjA.
Please contact your system administrator.
Add correct host key in /lustre2/home/toliste/.ssh/known_hosts to get rid of this message.
Offending ECDSA key in /lustre2/home/toliste/.ssh/known_hosts:1
Password authentication is disabled to avoid man-in-the-middle attacks.
Keyboard-interactive authentication is disabled to avoid man-in-the-middle attacks.
@@@@@@@@@@@@@@@@@@@@@@@@@@@@@@@@@@@@@@@@@@@@@@@@@@@@@@@@@@@
@    WARNING: REMOTE HOST IDENTIFICATION HAS CHANGED!     @
@@@@@@@@@@@@@@@@@@@@@@@@@@@@@@@@@@@@@@@@@@@@@@@@@@@@@@@@@@@
IT IS POSSIBLE THAT SOMEONE IS DOING SOMETHING NASTY!
Someone could be eavesdropping on you right now (man-in-the-middle attack)!
It is also possible that a host key has just been changed.
The fingerprint for the ECDSA key sent by the remote host is
SHA256:Wt0wU7NuhRJbNEfBIAVhaK94Qx2gbnia6Nw3hK1q2MM.
Please contact your system administrator.
Add correct host key in /lustre2/home/toliste/.ssh/known_hosts to get rid of this message.
Offending ECDSA key in /lustre2/home/toliste/.ssh/known_hosts:7
Password authentication is disabled to avoid man-in-the-middle attacks.
Keyboard-interactive authentication is disabled to avoid man-in-the-middle attacks.
@@@@@@@@@@@@@@@@@@@@@@@@@@@@@@@@@@@@@@@@@@@@@@@@@@@@@@@@@@@
@    WARNING: REMOTE HOST IDENTIFICATION HAS CHANGED!     @
@@@@@@@@@@@@@@@@@@@@@@@@@@@@@@@@@@@@@@@@@@@@@@@@@@@@@@@@@@@
IT IS POSSIBLE THAT SOMEONE IS DOING SOMETHING NASTY!
Someone could be eavesdropping on you right now (man-in-the-middle attack)!
It is also possible that a host key has just been changed.
The fingerprint for the ECDSA key sent by the remote host is
SHA256:4mJon2np8Urxb00CzgBFBLFqz+FVIDANLLsA/+CQZ+Q.
Please contact your system administrator.
Add correct host key in /lustre2/home/toliste/.ssh/known_hosts to get rid of this message.
Offending ECDSA key in /lustre2/home/toliste/.ssh/known_hosts:6
Password authentication is disabled to avoid man-in-the-middle attacks.
Keyboard-interactive authentication is disabled to avoid man-in-the-middle attacks.
@@@@@@@@@@@@@@@@@@@@@@@@@@@@@@@@@@@@@@@@@@@@@@@@@@@@@@@@@@@
@    WARNING: REMOTE HOST IDENTIFICATION HAS CHANGED!     @
@@@@@@@@@@@@@@@@@@@@@@@@@@@@@@@@@@@@@@@@@@@@@@@@@@@@@@@@@@@
IT IS POSSIBLE THAT SOMEONE IS DOING SOMETHING NASTY!
Someone could be eavesdropping on you right now (man-in-the-middle attack)!
It is also possible that a host key has just been changed.
The fingerprint for the ECDSA key sent by the remote host is
SHA256:2L8+rWmtOly5Dne65cLommFQX0Z6/FNW4pmamQkH48o.
Please contact your system administrator.
Add correct host key in /lustre2/home/toliste/.ssh/known_hosts to get rid of this message.
Offending ECDSA key in /lustre2/home/toliste/.ssh/known_hosts:4
Password authentication is disabled to avoid man-in-the-middle attacks.
Keyboard-interactive authentication is disabled to avoid man-in-the-middle attacks.
@@@@@@@@@@@@@@@@@@@@@@@@@@@@@@@@@@@@@@@@@@@@@@@@@@@@@@@@@@@
@    WARNING: REMOTE HOST IDENTIFICATION HAS CHANGED!     @
@@@@@@@@@@@@@@@@@@@@@@@@@@@@@@@@@@@@@@@@@@@@@@@@@@@@@@@@@@@
IT IS POSSIBLE THAT SOMEONE IS DOING SOMETHING NASTY!
Someone could be eavesdropping on you right now (man-in-the-middle attack)!
It is also possible that a host key has just been changed.
The fingerprint for the ECDSA key sent by the remote host is
SHA256:uDTyhacB/CVeW2vcMi8+W3dxfcXuwxtvyrCo/SGTo30.
Please contact your system administrator.
Add correct host key in /lustre2/home/toliste/.ssh/known_hosts to get rid of this message.
Offending ECDSA key in /lustre2/home/toliste/.ssh/known_hosts:2
Password authentication is disabled to avoid man-in-the-middle attacks.
Keyboard-interactive authentication is disabled to avoid man-in-the-middle attacks.
 (Enter /lustre1/prg/gaussian/bin/G16_C01_Linda9.2_SSE4/g16/linda-exe/l302.exel)
 NPDir=0 NMtPBC=     1 NCelOv=     1 NCel=       1 NClECP=     1 NCelD=      1
         NCelK=      1 NCelE2=     1 NClLst=     1 CellRange=     0.0.
 One-electron integrals computed using PRISM.
 NBasis=   335 RedAO= T EigKep=  2.82D-04  NBF=   335
 NBsUse=   335 1.00D-06 EigRej= -1.00D+00 NBFU=   335
 Precomputing XC quadrature grid using
 IXCGrd= 4 IRadAn=           5 IRanWt=          -1 IRanGd=           0 AccXCQ= 0.00D+00.
 Generated NRdTot=       0 NPtTot=           0 NUsed=           0 NTot=          32
 NSgBfM=   354   354   354   354   354 MxSgAt=    31 MxSgA2=    31.
 Leave Link  302 at Tue Feb  1 12:20:03 2022, MaxMem= 11408506880 cpu:              17.7 elap:               1.6
 (Enter /lustre1/prg/gaussian/bin/G16_C01_Linda9.2_SSE4/g16/l303.exe)
 DipDrv:  MaxL=1.
 Leave Link  303 at Tue Feb  1 12:20:04 2022, MaxMem= 11408506880 cpu:               1.4 elap:               0.3
 (Enter /lustre1/prg/gaussian/bin/G16_C01_Linda9.2_SSE4/g16/l308.exe)
 Leave Link  308 at Tue Feb  1 12:20:04 2022, MaxMem= 11408506880 cpu:               2.5 elap:               0.4
@@@@@@@@@@@@@@@@@@@@@@@@@@@@@@@@@@@@@@@@@@@@@@@@@@@@@@@@@@@
@    WARNING: REMOTE HOST IDENTIFICATION HAS CHANGED!     @
@@@@@@@@@@@@@@@@@@@@@@@@@@@@@@@@@@@@@@@@@@@@@@@@@@@@@@@@@@@
IT IS POSSIBLE THAT SOMEONE IS DOING SOMETHING NASTY!
Someone could be eavesdropping on you right now (man-in-the-middle attack)!
It is also possible that a host key has just been changed.
The fingerprint for the ECDSA key sent by the remote host is
SHA256:JMBYVXRfK2n6y2yXsPI58zcerXQch0mAkBCLx2EQCjA.
Please contact your system administrator.
Add correct host key in /lustre2/home/toliste/.ssh/known_hosts to get rid of this message.
Offending ECDSA key in /lustre2/home/toliste/.ssh/known_hosts:1
Password authentication is disabled to avoid man-in-the-middle attacks.
Keyboard-interactive authentication is disabled to avoid man-in-the-middle attacks.
@@@@@@@@@@@@@@@@@@@@@@@@@@@@@@@@@@@@@@@@@@@@@@@@@@@@@@@@@@@
@    WARNING: REMOTE HOST IDENTIFICATION HAS CHANGED!     @
@@@@@@@@@@@@@@@@@@@@@@@@@@@@@@@@@@@@@@@@@@@@@@@@@@@@@@@@@@@
IT IS POSSIBLE THAT SOMEONE IS DOING SOMETHING NASTY!
Someone could be eavesdropping on you right now (man-in-the-middle attack)!
It is also possible that a host key has just been changed.
The fingerprint for the ECDSA key sent by the remote host is
SHA256:4mJon2np8Urxb00CzgBFBLFqz+FVIDANLLsA/+CQZ+Q.
Please contact your system administrator.
Add correct host key in /lustre2/home/toliste/.ssh/known_hosts to get rid of this message.
Offending ECDSA key in /lustre2/home/toliste/.ssh/known_hosts:6
Password authentication is disabled to avoid man-in-the-middle attacks.
Keyboard-interactive authentication is disabled to avoid man-in-the-middle attacks.
@@@@@@@@@@@@@@@@@@@@@@@@@@@@@@@@@@@@@@@@@@@@@@@@@@@@@@@@@@@
@    WARNING: REMOTE HOST IDENTIFICATION HAS CHANGED!     @
@@@@@@@@@@@@@@@@@@@@@@@@@@@@@@@@@@@@@@@@@@@@@@@@@@@@@@@@@@@
IT IS POSSIBLE THAT SOMEONE IS DOING SOMETHING NASTY!
Someone could be eavesdropping on you right now (man-in-the-middle attack)!
It is also possible that a host key has just been changed.
The fingerprint for the ECDSA key sent by the remote host is
SHA256:pUAANVT+QIHMG3gDTB6Nfy5J4iYg5JWrtVNbA9fVJEg.
Please contact your system administrator.
Add correct host key in /lustre2/home/toliste/.ssh/known_hosts to get rid of this message.
Offending ECDSA key in /lustre2/home/toliste/.ssh/known_hosts:5
Password authentication is disabled to avoid man-in-the-middle attacks.
Keyboard-interactive authentication is disabled to avoid man-in-the-middle attacks.
@@@@@@@@@@@@@@@@@@@@@@@@@@@@@@@@@@@@@@@@@@@@@@@@@@@@@@@@@@@
@    WARNING: REMOTE HOST IDENTIFICATION HAS CHANGED!     @
@@@@@@@@@@@@@@@@@@@@@@@@@@@@@@@@@@@@@@@@@@@@@@@@@@@@@@@@@@@
IT IS POSSIBLE THAT SOMEONE IS DOING SOMETHING NASTY!
Someone could be eavesdropping on you right now (man-in-the-middle attack)!
It is also possible that a host key has just been changed.
The fingerprint for the ECDSA key sent by the remote host is
SHA256:uDTyhacB/CVeW2vcMi8+W3dxfcXuwxtvyrCo/SGTo30.
Please contact your system administrator.
Add correct host key in /lustre2/home/toliste/.ssh/known_hosts to get rid of this message.
Offending ECDSA key in /lustre2/home/toliste/.ssh/known_hosts:2
Password authentication is disabled to avoid man-in-the-middle attacks.
Keyboard-interactive authentication is disabled to avoid man-in-the-middle attacks.
@@@@@@@@@@@@@@@@@@@@@@@@@@@@@@@@@@@@@@@@@@@@@@@@@@@@@@@@@@@
@    WARNING: REMOTE HOST IDENTIFICATION HAS CHANGED!     @
@@@@@@@@@@@@@@@@@@@@@@@@@@@@@@@@@@@@@@@@@@@@@@@@@@@@@@@@@@@
IT IS POSSIBLE THAT SOMEONE IS DOING SOMETHING NASTY!
Someone could be eavesdropping on you right now (man-in-the-middle attack)!
It is also possible that a host key has just been changed.
The fingerprint for the ECDSA key sent by the remote host is
SHA256:Wt0wU7NuhRJbNEfBIAVhaK94Qx2gbnia6Nw3hK1q2MM.
Please contact your system administrator.
Add correct host key in /lustre2/home/toliste/.ssh/known_hosts to get rid of this message.
Offending ECDSA key in /lustre2/home/toliste/.ssh/known_hosts:7
Password authentication is disabled to avoid man-in-the-middle attacks.
Keyboard-interactive authentication is disabled to avoid man-in-the-middle attacks.
@@@@@@@@@@@@@@@@@@@@@@@@@@@@@@@@@@@@@@@@@@@@@@@@@@@@@@@@@@@
@    WARNING: REMOTE HOST IDENTIFICATION HAS CHANGED!     @
@@@@@@@@@@@@@@@@@@@@@@@@@@@@@@@@@@@@@@@@@@@@@@@@@@@@@@@@@@@
IT IS POSSIBLE THAT SOMEONE IS DOING SOMETHING NASTY!
Someone could be eavesdropping on you right now (man-in-the-middle attack)!
It is also possible that a host key has just been changed.
The fingerprint for the ECDSA key sent by the remote host is
SHA256:kawKeDCaQe3uT69RUPVXoEKT7IFr2es2tQryEUjuZpQ.
Please contact your system administrator.
Add correct host key in /lustre2/home/toliste/.ssh/known_hosts to get rid of this message.
Offending ECDSA key in /lustre2/home/toliste/.ssh/known_hosts:3
Password authentication is disabled to avoid man-in-the-middle attacks.
Keyboard-interactive authentication is disabled to avoid man-in-the-middle attacks.
@@@@@@@@@@@@@@@@@@@@@@@@@@@@@@@@@@@@@@@@@@@@@@@@@@@@@@@@@@@
@    WARNING: REMOTE HOST IDENTIFICATION HAS CHANGED!     @
@@@@@@@@@@@@@@@@@@@@@@@@@@@@@@@@@@@@@@@@@@@@@@@@@@@@@@@@@@@
IT IS POSSIBLE THAT SOMEONE IS DOING SOMETHING NASTY!
Someone could be eavesdropping on you right now (man-in-the-middle attack)!
It is also possible that a host key has just been changed.
The fingerprint for the ECDSA key sent by the remote host is
SHA256:2L8+rWmtOly5Dne65cLommFQX0Z6/FNW4pmamQkH48o.
Please contact your system administrator.
Add correct host key in /lustre2/home/toliste/.ssh/known_hosts to get rid of this message.
Offending ECDSA key in /lustre2/home/toliste/.ssh/known_hosts:4
Password authentication is disabled to avoid man-in-the-middle attacks.
Keyboard-interactive authentication is disabled to avoid man-in-the-middle attacks.
 (Enter /lustre1/prg/gaussian/bin/G16_C01_Linda9.2_SSE4/g16/linda-exe/l401.exel)
 ExpMin= 9.54D-02 ExpMax= 1.47D+04 ExpMxC= 5.03D+02 IAcc=3 IRadAn=         5 AccDes= 0.00D+00
 Harris functional with IExCor= 1009 and IRadAn=       5 diagonalized for initial guess.
 HarFok:  IExCor= 1009 AccDes= 0.00D+00 IRadAn=         5 IDoV= 1 UseB2=F ITyADJ=14
 ICtDFT=  3500011 ScaDFX=  1.000000  1.000000  1.000000  1.000000
 FoFCou: FMM=F IPFlag=           0 FMFlag=      100000 FMFlg1=           0
         NFxFlg=           0 DoJE=T BraDBF=F KetDBF=T FulRan=T
         wScrn=  0.000000 ICntrl=       500 IOpCl=  0 I1Cent=   200000004 NGrid=           0
         NMat0=    1 NMatS0=      1 NMatT0=    0 NMatD0=    1 NMtDS0=    0 NMtDT0=    0
 Symmetry not used in FoFCou.
 Harris En= -911.573640148926    
 JPrj=0 DoOrth=F DoCkMO=F.
 Leave Link  401 at Tue Feb  1 12:20:10 2022, MaxMem= 11408506880 cpu:              40.4 elap:               3.6
@@@@@@@@@@@@@@@@@@@@@@@@@@@@@@@@@@@@@@@@@@@@@@@@@@@@@@@@@@@
@    WARNING: REMOTE HOST IDENTIFICATION HAS CHANGED!     @
@@@@@@@@@@@@@@@@@@@@@@@@@@@@@@@@@@@@@@@@@@@@@@@@@@@@@@@@@@@
@@@@@@@@@@@@@@@@@@@@@@@@@@@@@@@@@@@@@@@@@@@@@@@@@@@@@@@@@@@
@    WARNING: REMOTE HOST IDENTIFICATION HAS CHANGED!     @
IT IS POSSIBLE THAT SOMEONE IS DOING SOMETHING NASTY!
@@@@@@@@@@@@@@@@@@@@@@@@@@@@@@@@@@@@@@@@@@@@@@@@@@@@@@@@@@@
Someone could be eavesdropping on you right now (man-in-the-middle attack)!
IT IS POSSIBLE THAT SOMEONE IS DOING SOMETHING NASTY!
It is also possible that a host key has just been changed.
Someone could be eavesdropping on you right now (man-in-the-middle attack)!
The fingerprint for the ECDSA key sent by the remote host is
SHA256:kawKeDCaQe3uT69RUPVXoEKT7IFr2es2tQryEUjuZpQ.
It is also possible that a host key has just been changed.
Please contact your system administrator.
The fingerprint for the ECDSA key sent by the remote host is
SHA256:uDTyhacB/CVeW2vcMi8+W3dxfcXuwxtvyrCo/SGTo30.
Add correct host key in /lustre2/home/toliste/.ssh/known_hosts to get rid of this message.
Please contact your system administrator.
Offending ECDSA key in /lustre2/home/toliste/.ssh/known_hosts:3
Add correct host key in /lustre2/home/toliste/.ssh/known_hosts to get rid of this message.
Password authentication is disabled to avoid man-in-the-middle attacks.
Offending ECDSA key in /lustre2/home/toliste/.ssh/known_hosts:2
Keyboard-interactive authentication is disabled to avoid man-in-the-middle attacks.
Password authentication is disabled to avoid man-in-the-middle attacks.
Keyboard-interactive authentication is disabled to avoid man-in-the-middle attacks.
@@@@@@@@@@@@@@@@@@@@@@@@@@@@@@@@@@@@@@@@@@@@@@@@@@@@@@@@@@@
@    WARNING: REMOTE HOST IDENTIFICATION HAS CHANGED!     @
@@@@@@@@@@@@@@@@@@@@@@@@@@@@@@@@@@@@@@@@@@@@@@@@@@@@@@@@@@@
IT IS POSSIBLE THAT SOMEONE IS DOING SOMETHING NASTY!
Someone could be eavesdropping on you right now (man-in-the-middle attack)!
It is also possible that a host key has just been changed.
The fingerprint for the ECDSA key sent by the remote host is
SHA256:2L8+rWmtOly5Dne65cLommFQX0Z6/FNW4pmamQkH48o.
Please contact your system administrator.
Add correct host key in /lustre2/home/toliste/.ssh/known_hosts to get rid of this message.
Offending ECDSA key in /lustre2/home/toliste/.ssh/known_hosts:4
Password authentication is disabled to avoid man-in-the-middle attacks.
Keyboard-interactive authentication is disabled to avoid man-in-the-middle attacks.
@@@@@@@@@@@@@@@@@@@@@@@@@@@@@@@@@@@@@@@@@@@@@@@@@@@@@@@@@@@
@    WARNING: REMOTE HOST IDENTIFICATION HAS CHANGED!     @
@@@@@@@@@@@@@@@@@@@@@@@@@@@@@@@@@@@@@@@@@@@@@@@@@@@@@@@@@@@
IT IS POSSIBLE THAT SOMEONE IS DOING SOMETHING NASTY!
Someone could be eavesdropping on you right now (man-in-the-middle attack)!
It is also possible that a host key has just been changed.
The fingerprint for the ECDSA key sent by the remote host is
SHA256:JMBYVXRfK2n6y2yXsPI58zcerXQch0mAkBCLx2EQCjA.
Please contact your system administrator.
Add correct host key in /lustre2/home/toliste/.ssh/known_hosts to get rid of this message.
Offending ECDSA key in /lustre2/home/toliste/.ssh/known_hosts:1
Password authentication is disabled to avoid man-in-the-middle attacks.
Keyboard-interactive authentication is disabled to avoid man-in-the-middle attacks.
@@@@@@@@@@@@@@@@@@@@@@@@@@@@@@@@@@@@@@@@@@@@@@@@@@@@@@@@@@@
@    WARNING: REMOTE HOST IDENTIFICATION HAS CHANGED!     @
@@@@@@@@@@@@@@@@@@@@@@@@@@@@@@@@@@@@@@@@@@@@@@@@@@@@@@@@@@@
IT IS POSSIBLE THAT SOMEONE IS DOING SOMETHING NASTY!
Someone could be eavesdropping on you right now (man-in-the-middle attack)!
It is also possible that a host key has just been changed.
The fingerprint for the ECDSA key sent by the remote host is
SHA256:pUAANVT+QIHMG3gDTB6Nfy5J4iYg5JWrtVNbA9fVJEg.
Please contact your system administrator.
Add correct host key in /lustre2/home/toliste/.ssh/known_hosts to get rid of this message.
Offending ECDSA key in /lustre2/home/toliste/.ssh/known_hosts:5
Password authentication is disabled to avoid man-in-the-middle attacks.
Keyboard-interactive authentication is disabled to avoid man-in-the-middle attacks.
@@@@@@@@@@@@@@@@@@@@@@@@@@@@@@@@@@@@@@@@@@@@@@@@@@@@@@@@@@@
@    WARNING: REMOTE HOST IDENTIFICATION HAS CHANGED!     @
@@@@@@@@@@@@@@@@@@@@@@@@@@@@@@@@@@@@@@@@@@@@@@@@@@@@@@@@@@@
IT IS POSSIBLE THAT SOMEONE IS DOING SOMETHING NASTY!
Someone could be eavesdropping on you right now (man-in-the-middle attack)!
It is also possible that a host key has just been changed.
The fingerprint for the ECDSA key sent by the remote host is
SHA256:4mJon2np8Urxb00CzgBFBLFqz+FVIDANLLsA/+CQZ+Q.
Please contact your system administrator.
Add correct host key in /lustre2/home/toliste/.ssh/known_hosts to get rid of this message.
Offending ECDSA key in /lustre2/home/toliste/.ssh/known_hosts:6
Password authentication is disabled to avoid man-in-the-middle attacks.
Keyboard-interactive authentication is disabled to avoid man-in-the-middle attacks.
@@@@@@@@@@@@@@@@@@@@@@@@@@@@@@@@@@@@@@@@@@@@@@@@@@@@@@@@@@@
@    WARNING: REMOTE HOST IDENTIFICATION HAS CHANGED!     @
@@@@@@@@@@@@@@@@@@@@@@@@@@@@@@@@@@@@@@@@@@@@@@@@@@@@@@@@@@@
IT IS POSSIBLE THAT SOMEONE IS DOING SOMETHING NASTY!
Someone could be eavesdropping on you right now (man-in-the-middle attack)!
It is also possible that a host key has just been changed.
The fingerprint for the ECDSA key sent by the remote host is
SHA256:Wt0wU7NuhRJbNEfBIAVhaK94Qx2gbnia6Nw3hK1q2MM.
Please contact your system administrator.
Add correct host key in /lustre2/home/toliste/.ssh/known_hosts to get rid of this message.
Offending ECDSA key in /lustre2/home/toliste/.ssh/known_hosts:7
Password authentication is disabled to avoid man-in-the-middle attacks.
Keyboard-interactive authentication is disabled to avoid man-in-the-middle attacks.
 (Enter /lustre1/prg/gaussian/bin/G16_C01_Linda9.2_SSE4/g16/linda-exe/l502.exel)
 Two-electron integral symmetry not used.
 Closed shell SCF:
 Using DIIS extrapolation, IDIIS=  1040.
 NGot= 11408506880 LenX= 11408246955 LenY= 11408120489
 Requested convergence on RMS density matrix=1.00D-08 within 128 cycles.
 Requested convergence on MAX density matrix=1.00D-06.
 Requested convergence on             energy=1.00D-06.
 No special actions if energy rises.
 Fock matrices will be formed incrementally for  20 cycles.

 Cycle   1  Pass 1  IDiag  1:
 FoFJK:  IHMeth= 1 ICntrl=       0 DoSepK=F KAlg= 0 I1Cent=           0 FoldK=F
 IRaf= 870000000 NMat=       1 IRICut=       1 DoRegI=T DoRafI=F ISym2E= 0 IDoP0=0 IntGTp=1.
 FoFCou: FMM=F IPFlag=           0 FMFlag=      100000 FMFlg1=           0
         NFxFlg=           0 DoJE=F BraDBF=F KetDBF=F FulRan=T
         wScrn=  0.000000 ICntrl=         0 IOpCl=  0 I1Cent=           0 NGrid=           0
         NMat0=    1 NMatS0=      1 NMatT0=    0 NMatD0=    1 NMtDS0=    0 NMtDT0=    0
 Symmetry not used in FoFCou.
 Inv3:  Mode=1 IEnd=    18302700.
 Iteration    1 A*A^-1 deviation from unit magnitude is 1.09D-14 for    498.
 Iteration    1 A*A^-1 deviation from orthogonality  is 4.92D-15 for   1427    413.
 Iteration    1 A^-1*A deviation from unit magnitude is 8.66D-15 for    498.
 Iteration    1 A^-1*A deviation from orthogonality  is 1.91D-15 for   2329   1277.
 E= -911.877819322886    
 DIIS: error= 2.00D-02 at cycle   1 NSaved=   1.
 NSaved= 1 IEnMin= 1 EnMin= -911.877819322886     IErMin= 1 ErrMin= 2.00D-02
 ErrMax= 2.00D-02  0.00D+00 EMaxC= 1.00D-01 BMatC= 3.29D-01 BMatP= 3.29D-01
 IDIUse=3 WtCom= 8.00D-01 WtEn= 2.00D-01
 Coeff-Com:  0.100D+01
 Coeff-En:   0.100D+01
 Coeff:      0.100D+01
 Gap=     0.174 Goal=   None    Shift=    0.000
 GapD=    0.174 DampG=1.000 DampE=0.500 DampFc=0.5000 IDamp=-1.
 Damping current iteration by 5.00D-01
 RMSDP=3.53D-03 MaxDP=9.83D-02              OVMax= 1.49D-01

 Cycle   2  Pass 1  IDiag  1:
 RMSU=  1.70D-03    CP:  9.75D-01
 E= -912.036004645956     Delta-E=       -0.158185323070 Rises=F Damp=T
 DIIS: error= 5.94D-03 at cycle   2 NSaved=   2.
 NSaved= 2 IEnMin= 2 EnMin= -912.036004645956     IErMin= 2 ErrMin= 5.94D-03
 ErrMax= 5.94D-03  0.00D+00 EMaxC= 1.00D-01 BMatC= 2.86D-02 BMatP= 3.29D-01
 IDIUse=3 WtCom= 9.41D-01 WtEn= 5.94D-02
 Coeff-Com: -0.101D+00 0.110D+01
 Coeff-En:   0.000D+00 0.100D+01
 Coeff:     -0.946D-01 0.109D+01
 Gap=     0.183 Goal=   None    Shift=    0.000
 RMSDP=1.23D-03 MaxDP=5.64D-02 DE=-1.58D-01 OVMax= 9.15D-02

 Cycle   3  Pass 1  IDiag  1:
 RMSU=  1.01D-03    CP:  9.56D-01  1.36D+00
 E= -912.177932884387     Delta-E=       -0.141928238430 Rises=F Damp=F
 DIIS: error= 5.09D-03 at cycle   3 NSaved=   3.
 NSaved= 3 IEnMin= 3 EnMin= -912.177932884387     IErMin= 3 ErrMin= 5.09D-03
 ErrMax= 5.09D-03  0.00D+00 EMaxC= 1.00D-01 BMatC= 1.34D-02 BMatP= 2.86D-02
 IDIUse=3 WtCom= 9.49D-01 WtEn= 5.09D-02
 Coeff-Com: -0.110D+00 0.469D+00 0.640D+00
 Coeff-En:   0.000D+00 0.000D+00 0.100D+01
 Coeff:     -0.104D+00 0.445D+00 0.659D+00
 Gap=     0.172 Goal=   None    Shift=    0.000
 RMSDP=4.40D-04 MaxDP=2.11D-02 DE=-1.42D-01 OVMax= 4.59D-02

 Cycle   4  Pass 1  IDiag  1:
 RMSU=  3.18D-04    CP:  9.58D-01  1.40D+00  7.07D-01
 E= -912.188562052043     Delta-E=       -0.010629167657 Rises=F Damp=F
 DIIS: error= 3.00D-03 at cycle   4 NSaved=   4.
 NSaved= 4 IEnMin= 4 EnMin= -912.188562052043     IErMin= 4 ErrMin= 3.00D-03
 ErrMax= 3.00D-03  0.00D+00 EMaxC= 1.00D-01 BMatC= 2.51D-03 BMatP= 1.34D-02
 IDIUse=3 WtCom= 9.70D-01 WtEn= 3.00D-02
 Coeff-Com: -0.363D-01 0.960D-01 0.341D+00 0.599D+00
 Coeff-En:   0.000D+00 0.000D+00 0.148D+00 0.852D+00
 Coeff:     -0.352D-01 0.931D-01 0.335D+00 0.607D+00
 Gap=     0.175 Goal=   None    Shift=    0.000
 RMSDP=1.51D-04 MaxDP=7.88D-03 DE=-1.06D-02 OVMax= 1.83D-02

 Cycle   5  Pass 1  IDiag  1:
 RMSU=  6.42D-05    CP:  9.57D-01  1.40D+00  7.90D-01  6.63D-01
 E= -912.191040868518     Delta-E=       -0.002478816475 Rises=F Damp=F
 DIIS: error= 3.08D-04 at cycle   5 NSaved=   5.
 NSaved= 5 IEnMin= 5 EnMin= -912.191040868518     IErMin= 5 ErrMin= 3.08D-04
 ErrMax= 3.08D-04  0.00D+00 EMaxC= 1.00D-01 BMatC= 8.79D-05 BMatP= 2.51D-03
 IDIUse=3 WtCom= 9.97D-01 WtEn= 3.08D-03
 Coeff-Com: -0.838D-02 0.131D-01 0.101D+00 0.252D+00 0.643D+00
 Coeff-En:   0.000D+00 0.000D+00 0.000D+00 0.000D+00 0.100D+01
 Coeff:     -0.835D-02 0.131D-01 0.100D+00 0.251D+00 0.644D+00
 Gap=     0.175 Goal=   None    Shift=    0.000
 RMSDP=2.77D-05 MaxDP=1.80D-03 DE=-2.48D-03 OVMax= 2.90D-03

 Cycle   6  Pass 1  IDiag  1:
 RMSU=  1.86D-05    CP:  9.57D-01  1.40D+00  7.93D-01  6.98D-01  7.52D-01
 E= -912.191120428652     Delta-E=       -0.000079560134 Rises=F Damp=F
 DIIS: error= 6.83D-05 at cycle   6 NSaved=   6.
 NSaved= 6 IEnMin= 6 EnMin= -912.191120428652     IErMin= 6 ErrMin= 6.83D-05
 ErrMax= 6.83D-05  0.00D+00 EMaxC= 1.00D-01 BMatC= 4.90D-06 BMatP= 8.79D-05
 IDIUse=1 WtCom= 1.00D+00 WtEn= 0.00D+00
 Coeff-Com: -0.134D-02 0.201D-04 0.197D-01 0.632D-01 0.253D+00 0.666D+00
 Coeff:     -0.134D-02 0.201D-04 0.197D-01 0.632D-01 0.253D+00 0.666D+00
 Gap=     0.175 Goal=   None    Shift=    0.000
 RMSDP=7.01D-06 MaxDP=2.94D-04 DE=-7.96D-05 OVMax= 5.61D-04

 Cycle   7  Pass 1  IDiag  1:
 RMSU=  5.87D-06    CP:  9.57D-01  1.40D+00  7.94D-01  7.00D-01  7.99D-01
                    CP:  8.85D-01
 E= -912.191125217436     Delta-E=       -0.000004788784 Rises=F Damp=F
 DIIS: error= 2.78D-05 at cycle   7 NSaved=   7.
 NSaved= 7 IEnMin= 7 EnMin= -912.191125217436     IErMin= 7 ErrMin= 2.78D-05
 ErrMax= 2.78D-05  0.00D+00 EMaxC= 1.00D-01 BMatC= 3.11D-07 BMatP= 4.90D-06
 IDIUse=1 WtCom= 1.00D+00 WtEn= 0.00D+00
 Coeff-Com:  0.495D-03-0.143D-02-0.492D-02-0.790D-02 0.840D-02 0.163D+00
 Coeff-Com:  0.843D+00
 Coeff:      0.495D-03-0.143D-02-0.492D-02-0.790D-02 0.840D-02 0.163D+00
 Coeff:      0.843D+00
 Gap=     0.175 Goal=   None    Shift=    0.000
 RMSDP=3.19D-06 MaxDP=1.22D-04 DE=-4.79D-06 OVMax= 4.26D-04

 Cycle   8  Pass 1  IDiag  1:
 RMSU=  2.25D-06    CP:  9.57D-01  1.40D+00  7.94D-01  7.03D-01  8.07D-01
                    CP:  9.85D-01  1.01D+00
 E= -912.191125581678     Delta-E=       -0.000000364242 Rises=F Damp=F
 DIIS: error= 2.43D-05 at cycle   8 NSaved=   8.
 NSaved= 8 IEnMin= 8 EnMin= -912.191125581678     IErMin= 8 ErrMin= 2.43D-05
 ErrMax= 2.43D-05  0.00D+00 EMaxC= 1.00D-01 BMatC= 1.46D-07 BMatP= 3.11D-07
 IDIUse=1 WtCom= 1.00D+00 WtEn= 0.00D+00
 Coeff-Com:  0.482D-03-0.807D-03-0.551D-02-0.134D-01-0.320D-01-0.170D-01
 Coeff-Com:  0.466D+00 0.602D+00
 Coeff:      0.482D-03-0.807D-03-0.551D-02-0.134D-01-0.320D-01-0.170D-01
 Coeff:      0.466D+00 0.602D+00
 Gap=     0.175 Goal=   None    Shift=    0.000
 RMSDP=1.35D-06 MaxDP=8.06D-05 DE=-3.64D-07 OVMax= 1.62D-04

 Cycle   9  Pass 1  IDiag  1:
 RMSU=  7.80D-07    CP:  9.57D-01  1.40D+00  7.94D-01  7.03D-01  8.15D-01
                    CP:  1.00D+00  1.11D+00  7.00D-01
 E= -912.191125747253     Delta-E=       -0.000000165576 Rises=F Damp=F
 DIIS: error= 2.36D-06 at cycle   9 NSaved=   9.
 NSaved= 9 IEnMin= 9 EnMin= -912.191125747253     IErMin= 9 ErrMin= 2.36D-06
 ErrMax= 2.36D-06  0.00D+00 EMaxC= 1.00D-01 BMatC= 4.23D-09 BMatP= 1.46D-07
 IDIUse=1 WtCom= 1.00D+00 WtEn= 0.00D+00
 Coeff-Com:  0.999D-04-0.117D-03-0.118D-02-0.321D-02-0.970D-02-0.182D-01
 Coeff-Com:  0.728D-01 0.174D+00 0.785D+00
 Coeff:      0.999D-04-0.117D-03-0.118D-02-0.321D-02-0.970D-02-0.182D-01
 Coeff:      0.728D-01 0.174D+00 0.785D+00
 Gap=     0.175 Goal=   None    Shift=    0.000
 RMSDP=3.37D-07 MaxDP=1.22D-05 DE=-1.66D-07 OVMax= 3.85D-05

 Cycle  10  Pass 1  IDiag  1:
 RMSU=  2.34D-07    CP:  9.57D-01  1.40D+00  7.94D-01  7.03D-01  8.15D-01
                    CP:  1.01D+00  1.13D+00  7.73D-01  9.73D-01
 E= -912.191125753503     Delta-E=       -0.000000006250 Rises=F Damp=F
 DIIS: error= 1.27D-06 at cycle  10 NSaved=  10.
 NSaved=10 IEnMin=10 EnMin= -912.191125753503     IErMin=10 ErrMin= 1.27D-06
 ErrMax= 1.27D-06  0.00D+00 EMaxC= 1.00D-01 BMatC= 8.99D-10 BMatP= 4.23D-09
 IDIUse=1 WtCom= 1.00D+00 WtEn= 0.00D+00
 Coeff-Com: -0.180D-04 0.494D-04 0.191D-03 0.358D-03-0.108D-03-0.593D-02
 Coeff-Com: -0.280D-01-0.118D-01 0.312D+00 0.733D+00
 Coeff:     -0.180D-04 0.494D-04 0.191D-03 0.358D-03-0.108D-03-0.593D-02
 Coeff:     -0.280D-01-0.118D-01 0.312D+00 0.733D+00
 Gap=     0.175 Goal=   None    Shift=    0.000
 RMSDP=1.28D-07 MaxDP=6.14D-06 DE=-6.25D-09 OVMax= 1.56D-05

 Cycle  11  Pass 1  IDiag  1:
 RMSU=  8.58D-08    CP:  9.57D-01  1.40D+00  7.94D-01  7.03D-01  8.15D-01
                    CP:  1.01D+00  1.13D+00  7.88D-01  1.07D+00  9.23D-01
 E= -912.191125754679     Delta-E=       -0.000000001176 Rises=F Damp=F
 DIIS: error= 3.84D-07 at cycle  11 NSaved=  11.
 NSaved=11 IEnMin=11 EnMin= -912.191125754679     IErMin=11 ErrMin= 3.84D-07
 ErrMax= 3.84D-07  0.00D+00 EMaxC= 1.00D-01 BMatC= 1.06D-10 BMatP= 8.99D-10
 IDIUse=1 WtCom= 1.00D+00 WtEn= 0.00D+00
 Coeff-Com: -0.219D-04 0.371D-04 0.244D-03 0.618D-03 0.133D-02 0.473D-04
 Coeff-Com: -0.217D-01-0.328D-01 0.239D-01 0.295D+00 0.733D+00
 Coeff:     -0.219D-04 0.371D-04 0.244D-03 0.618D-03 0.133D-02 0.473D-04
 Coeff:     -0.217D-01-0.328D-01 0.239D-01 0.295D+00 0.733D+00
 Gap=     0.175 Goal=   None    Shift=    0.000
 RMSDP=4.71D-08 MaxDP=1.69D-06 DE=-1.18D-09 OVMax= 4.86D-06

 Cycle  12  Pass 1  IDiag  1:
 RMSU=  2.78D-08    CP:  9.57D-01  1.40D+00  7.94D-01  7.03D-01  8.15D-01
                    CP:  1.01D+00  1.13D+00  7.89D-01  1.10D+00  1.03D+00
                    CP:  9.14D-01
 E= -912.191125754829     Delta-E=       -0.000000000150 Rises=F Damp=F
 DIIS: error= 8.35D-08 at cycle  12 NSaved=  12.
 NSaved=12 IEnMin=12 EnMin= -912.191125754829     IErMin=12 ErrMin= 8.35D-08
 ErrMax= 8.35D-08  0.00D+00 EMaxC= 1.00D-01 BMatC= 4.08D-12 BMatP= 1.06D-10
 IDIUse=1 WtCom= 1.00D+00 WtEn= 0.00D+00
 Coeff-Com: -0.425D-05 0.632D-05 0.454D-04 0.126D-03 0.317D-03 0.370D-03
 Coeff-Com: -0.283D-02-0.750D-02-0.866D-02 0.299D-01 0.175D+00 0.814D+00
 Coeff:     -0.425D-05 0.632D-05 0.454D-04 0.126D-03 0.317D-03 0.370D-03
 Coeff:     -0.283D-02-0.750D-02-0.866D-02 0.299D-01 0.175D+00 0.814D+00
 Gap=     0.175 Goal=   None    Shift=    0.000
 RMSDP=1.10D-08 MaxDP=3.71D-07 DE=-1.50D-10 OVMax= 1.72D-06

 Cycle  13  Pass 1  IDiag  1:
 RMSU=  8.44D-09    CP:  9.57D-01  1.40D+00  7.94D-01  7.03D-01  8.15D-01
                    CP:  1.01D+00  1.13D+00  7.89D-01  1.10D+00  1.04D+00
                    CP:  9.73D-01  1.05D+00
 E= -912.191125754833     Delta-E=       -0.000000000004 Rises=F Damp=F
 DIIS: error= 3.82D-08 at cycle  13 NSaved=  13.
 NSaved=13 IEnMin=13 EnMin= -912.191125754833     IErMin=13 ErrMin= 3.82D-08
 ErrMax= 3.82D-08  0.00D+00 EMaxC= 1.00D-01 BMatC= 1.03D-12 BMatP= 4.08D-12
 IDIUse=1 WtCom= 1.00D+00 WtEn= 0.00D+00
 Coeff-Com:  0.700D-06-0.154D-05-0.928D-05-0.193D-04-0.177D-04 0.143D-03
 Coeff-Com:  0.129D-02 0.151D-03-0.662D-02-0.250D-01-0.243D-01 0.321D+00
 Coeff-Com:  0.733D+00
 Coeff:      0.700D-06-0.154D-05-0.928D-05-0.193D-04-0.177D-04 0.143D-03
 Coeff:      0.129D-02 0.151D-03-0.662D-02-0.250D-01-0.243D-01 0.321D+00
 Coeff:      0.733D+00
 Gap=     0.175 Goal=   None    Shift=    0.000
 RMSDP=4.97D-09 MaxDP=1.39D-07 DE=-4.09D-12 OVMax= 6.35D-07

 Error on total polarization charges =  0.01087
 SCF Done:  E(RM062X) =  -912.191125755     A.U. after   13 cycles
            NFock= 13  Conv=0.50D-08     -V/T= 2.0063
 KE= 9.064620441026D+02 PE=-5.063146012456D+03 EE= 1.777838995181D+03
 Leave Link  502 at Tue Feb  1 12:21:26 2022, MaxMem= 11408506880 cpu:             824.5 elap:              73.0
 (Enter /lustre1/prg/gaussian/bin/G16_C01_Linda9.2_SSE4/g16/l801.exe)
 DoSCS=F DFT=T ScalE2(SS,OS)=  1.000000  1.000000
 ExpMin= 9.54D-02 ExpMax= 1.47D+04 ExpMxC= 5.03D+02 IAcc=3 IRadAn=         5 AccDes= 0.00D+00
 HarFok:  IExCor=  205 AccDes= 0.00D+00 IRadAn=         5 IDoV=-2 UseB2=F ITyADJ=14
 ICtDFT= 12500011 ScaDFX=  1.000000  1.000000  1.000000  1.000000
 Largest valence mixing into a core orbital is  7.98D-05
 Largest core mixing into a valence orbital is  4.85D-05
 Range of M.O.s used for correlation:    21   335
 NBasis=   335 NAE=    69 NBE=    69 NFC=    20 NFV=     0
 NROrb=    315 NOA=    49 NOB=    49 NVA=   266 NVB=   266

 **** Warning!!: The largest alpha MO coefficient is  0.12679153D+02

 Leave Link  801 at Tue Feb  1 12:21:27 2022, MaxMem= 11408506880 cpu:               2.1 elap:               0.2
@@@@@@@@@@@@@@@@@@@@@@@@@@@@@@@@@@@@@@@@@@@@@@@@@@@@@@@@@@@
@    WARNING: REMOTE HOST IDENTIFICATION HAS CHANGED!     @
@@@@@@@@@@@@@@@@@@@@@@@@@@@@@@@@@@@@@@@@@@@@@@@@@@@@@@@@@@@
IT IS POSSIBLE THAT SOMEONE IS DOING SOMETHING NASTY!
Someone could be eavesdropping on you right now (man-in-the-middle attack)!
It is also possible that a host key has just been changed.
The fingerprint for the ECDSA key sent by the remote host is
SHA256:pUAANVT+QIHMG3gDTB6Nfy5J4iYg5JWrtVNbA9fVJEg.
Please contact your system administrator.
Add correct host key in /lustre2/home/toliste/.ssh/known_hosts to get rid of this message.
Offending ECDSA key in /lustre2/home/toliste/.ssh/known_hosts:5
Password authentication is disabled to avoid man-in-the-middle attacks.
Keyboard-interactive authentication is disabled to avoid man-in-the-middle attacks.
@@@@@@@@@@@@@@@@@@@@@@@@@@@@@@@@@@@@@@@@@@@@@@@@@@@@@@@@@@@
@    WARNING: REMOTE HOST IDENTIFICATION HAS CHANGED!     @
@@@@@@@@@@@@@@@@@@@@@@@@@@@@@@@@@@@@@@@@@@@@@@@@@@@@@@@@@@@
IT IS POSSIBLE THAT SOMEONE IS DOING SOMETHING NASTY!
Someone could be eavesdropping on you right now (man-in-the-middle attack)!
It is also possible that a host key has just been changed.
The fingerprint for the ECDSA key sent by the remote host is
SHA256:2L8+rWmtOly5Dne65cLommFQX0Z6/FNW4pmamQkH48o.
Please contact your system administrator.
Add correct host key in /lustre2/home/toliste/.ssh/known_hosts to get rid of this message.
Offending ECDSA key in /lustre2/home/toliste/.ssh/known_hosts:4
Password authentication is disabled to avoid man-in-the-middle attacks.
Keyboard-interactive authentication is disabled to avoid man-in-the-middle attacks.
@@@@@@@@@@@@@@@@@@@@@@@@@@@@@@@@@@@@@@@@@@@@@@@@@@@@@@@@@@@
@@@@@@@@@@@@@@@@@@@@@@@@@@@@@@@@@@@@@@@@@@@@@@@@@@@@@@@@@@@
@    WARNING: REMOTE HOST IDENTIFICATION HAS CHANGED!     @
@    WARNING: REMOTE HOST IDENTIFICATION HAS CHANGED!     @
@@@@@@@@@@@@@@@@@@@@@@@@@@@@@@@@@@@@@@@@@@@@@@@@@@@@@@@@@@@
@@@@@@@@@@@@@@@@@@@@@@@@@@@@@@@@@@@@@@@@@@@@@@@@@@@@@@@@@@@
IT IS POSSIBLE THAT SOMEONE IS DOING SOMETHING NASTY!
IT IS POSSIBLE THAT SOMEONE IS DOING SOMETHING NASTY!
Someone could be eavesdropping on you right now (man-in-the-middle attack)!
Someone could be eavesdropping on you right now (man-in-the-middle attack)!
It is also possible that a host key has just been changed.
It is also possible that a host key has just been changed.
The fingerprint for the ECDSA key sent by the remote host is
SHA256:JMBYVXRfK2n6y2yXsPI58zcerXQch0mAkBCLx2EQCjA.
The fingerprint for the ECDSA key sent by the remote host is
SHA256:kawKeDCaQe3uT69RUPVXoEKT7IFr2es2tQryEUjuZpQ.
Please contact your system administrator.
Please contact your system administrator.
Add correct host key in /lustre2/home/toliste/.ssh/known_hosts to get rid of this message.
Add correct host key in /lustre2/home/toliste/.ssh/known_hosts to get rid of this message.
Offending ECDSA key in /lustre2/home/toliste/.ssh/known_hosts:1
Offending ECDSA key in /lustre2/home/toliste/.ssh/known_hosts:3
Password authentication is disabled to avoid man-in-the-middle attacks.
Password authentication is disabled to avoid man-in-the-middle attacks.
Keyboard-interactive authentication is disabled to avoid man-in-the-middle attacks.
Keyboard-interactive authentication is disabled to avoid man-in-the-middle attacks.
@@@@@@@@@@@@@@@@@@@@@@@@@@@@@@@@@@@@@@@@@@@@@@@@@@@@@@@@@@@
@    WARNING: REMOTE HOST IDENTIFICATION HAS CHANGED!     @
@@@@@@@@@@@@@@@@@@@@@@@@@@@@@@@@@@@@@@@@@@@@@@@@@@@@@@@@@@@
IT IS POSSIBLE THAT SOMEONE IS DOING SOMETHING NASTY!
Someone could be eavesdropping on you right now (man-in-the-middle attack)!
It is also possible that a host key has just been changed.
The fingerprint for the ECDSA key sent by the remote host is
SHA256:4mJon2np8Urxb00CzgBFBLFqz+FVIDANLLsA/+CQZ+Q.
Please contact your system administrator.
Add correct host key in /lustre2/home/toliste/.ssh/known_hosts to get rid of this message.
Offending ECDSA key in /lustre2/home/toliste/.ssh/known_hosts:6
Password authentication is disabled to avoid man-in-the-middle attacks.
Keyboard-interactive authentication is disabled to avoid man-in-the-middle attacks.
@@@@@@@@@@@@@@@@@@@@@@@@@@@@@@@@@@@@@@@@@@@@@@@@@@@@@@@@@@@
@    WARNING: REMOTE HOST IDENTIFICATION HAS CHANGED!     @
@@@@@@@@@@@@@@@@@@@@@@@@@@@@@@@@@@@@@@@@@@@@@@@@@@@@@@@@@@@
IT IS POSSIBLE THAT SOMEONE IS DOING SOMETHING NASTY!
Someone could be eavesdropping on you right now (man-in-the-middle attack)!
It is also possible that a host key has just been changed.
The fingerprint for the ECDSA key sent by the remote host is
SHA256:Wt0wU7NuhRJbNEfBIAVhaK94Qx2gbnia6Nw3hK1q2MM.
Please contact your system administrator.
Add correct host key in /lustre2/home/toliste/.ssh/known_hosts to get rid of this message.
Offending ECDSA key in /lustre2/home/toliste/.ssh/known_hosts:7
Password authentication is disabled to avoid man-in-the-middle attacks.
Keyboard-interactive authentication is disabled to avoid man-in-the-middle attacks.
@@@@@@@@@@@@@@@@@@@@@@@@@@@@@@@@@@@@@@@@@@@@@@@@@@@@@@@@@@@
@    WARNING: REMOTE HOST IDENTIFICATION HAS CHANGED!     @
@@@@@@@@@@@@@@@@@@@@@@@@@@@@@@@@@@@@@@@@@@@@@@@@@@@@@@@@@@@
IT IS POSSIBLE THAT SOMEONE IS DOING SOMETHING NASTY!
Someone could be eavesdropping on you right now (man-in-the-middle attack)!
It is also possible that a host key has just been changed.
The fingerprint for the ECDSA key sent by the remote host is
SHA256:uDTyhacB/CVeW2vcMi8+W3dxfcXuwxtvyrCo/SGTo30.
Please contact your system administrator.
Add correct host key in /lustre2/home/toliste/.ssh/known_hosts to get rid of this message.
Offending ECDSA key in /lustre2/home/toliste/.ssh/known_hosts:2
Password authentication is disabled to avoid man-in-the-middle attacks.
Keyboard-interactive authentication is disabled to avoid man-in-the-middle attacks.
 (Enter /lustre1/prg/gaussian/bin/G16_C01_Linda9.2_SSE4/g16/linda-exe/l914.exel)
 RHF ground state
 Keep R1, R2, and R3 ints in memory in canonical form, NReq=4923275813.
 FoFCou: FMM=F IPFlag=           0 FMFlag=           0 FMFlg1=           0
         NFxFlg=           0 DoJE=F BraDBF=F KetDBF=F FulRan=T
         wScrn=  0.000000 ICntrl=       600 IOpCl=  0 I1Cent=           0 NGrid=           0
         NMat0=    1 NMatS0=  56280 NMatT0=    0 NMatD0=    1 NMtDS0=    0 NMtDT0=    0
 Symmetry not used in FoFCou.
 Two-electron integral symmetry not used.
 MDV= 11408506880 DFT=T DoStab=F Mixed=T DoRPA=T DoScal=F NonHer=T
 NEqPCM:  Using equilibrium solvation (IEInf=0, Eps=  20.4930, EpsInf=   1.8463)
 Making orbital integer symmetry assigments:
    24 initial guesses have been made.
 Convergence on wavefunction:    0.000001000000000
 Davidson Disk Diagonalization:  ConvIn= 1.00D-06 SkipCon=T Conv= 1.00D-06.
 Max sub-space:  2000 roots to seek:    24 dimension of matrix:        26068
 Iteration     1 Dimension    24 NMult     0 NNew     24
 CISAX will form    24 AO SS matrices at one time.
 NMat=    24 NSing=    24 JSym2X= 0.
 Excitation Energies [eV] at current iteration:
 Root      1 :     3.180211924217473
 Root      2 :     4.088344877571617
 Root      3 :     4.287502567609811
 Root      4 :     4.419274957279324
 Root      5 :     4.597093388801320
 Root      6 :     5.733133868449066
 Root      7 :     5.891484804194013
 Root      8 :     5.934464741255247
 Root      9 :     6.069710855880758
 Root     10 :     6.290861193098534
 Root     11 :     6.647840341060370
 Root     12 :     6.787686169209368
 Root     13 :     7.010420580057910
 Root     14 :     7.163397551944248
[...]
     2  N    0.346785   6.204371   0.483640  -0.025486  -0.054642   0.003764
     3  C   -0.027750   0.483640   4.783028   0.403909   0.467347  -0.040927
     4  H   -0.000276  -0.025486   0.403909   0.590307  -0.040196  -0.003519
     5  C   -0.000331  -0.054642   0.467347  -0.040196   4.770873   0.413641
     6  H    0.000174   0.003764  -0.040927  -0.003519   0.413641   0.630923
     7  C    0.004352  -0.080225  -0.058248   0.007290   0.525247  -0.040102
     8  H    0.000344   0.004121   0.009535  -0.000067  -0.043546  -0.005982
     9  C   -0.065896   0.430595  -0.136175   0.002778  -0.039238   0.009061
    10  C   -0.008612  -0.043689   0.008059  -0.000790   0.009109  -0.000203
    11  N    0.345600  -0.028078   0.000134   0.000182  -0.000089   0.000002
    12  C   -0.026481   0.000250  -0.000004  -0.000006   0.000000  -0.000000
    13  H    0.000208   0.000181  -0.000006   0.000000  -0.000000  -0.000000
    14  C   -0.000831  -0.000104  -0.000002  -0.000000  -0.000000   0.000000
    15  H    0.000161   0.000002  -0.000000  -0.000000   0.000000  -0.000000
    16  C    0.003773   0.000035   0.000026   0.000001   0.000000  -0.000000
    17  H    0.000312  -0.000008   0.000000  -0.000000   0.000000  -0.000000
    18  C   -0.066207  -0.011252  -0.000344   0.000092  -0.000499   0.000005
    19  F    0.450419  -0.027094   0.005594   0.002425   0.000393   0.000002
    20  F    0.474700  -0.027117  -0.002547  -0.000383  -0.000087   0.000000
    21  C    0.002354   0.003794  -0.000172   0.000004   0.000572  -0.000001
    22  C   -0.000117   0.000059  -0.000043   0.000001   0.000296   0.000003
    23  H   -0.000023  -0.000190  -0.000092  -0.000001   0.000384   0.000006
    24  C    0.000002  -0.000000   0.000001   0.000000  -0.000011  -0.000000
    25  H    0.000000   0.000000  -0.000000  -0.000000  -0.000000   0.000000
    26  C   -0.000000  -0.000000   0.000000   0.000000  -0.000000  -0.000000
    27  C    0.000001   0.000001  -0.000000   0.000000  -0.000000  -0.000000
    28  H    0.000000  -0.000000   0.000000  -0.000000  -0.000000  -0.000000
    29  C    0.000007  -0.000074   0.000002  -0.000000  -0.000004   0.000000
    30  H   -0.000021  -0.000002  -0.000000  -0.000000  -0.000002   0.000000
    31  H    0.000000   0.000000   0.000000   0.000000  -0.000000  -0.000000
               7          8          9         10         11         12
     1  B    0.004352   0.000344  -0.065896  -0.008612   0.345600  -0.026481
     2  N   -0.080225   0.004121   0.430595  -0.043689  -0.028078   0.000250
     3  C   -0.058248   0.009535  -0.136175   0.008059   0.000134  -0.000004
     4  H    0.007290  -0.000067   0.002778  -0.000790   0.000182  -0.000006
     5  C    0.525247  -0.043546  -0.039238   0.009109  -0.000089   0.000000
     6  H   -0.040102  -0.005982   0.009061  -0.000203   0.000002  -0.000000
     7  C    4.920053   0.412511   0.452989  -0.105894   0.000075   0.000024
     8  H    0.412511   0.637749  -0.031606  -0.013841  -0.000007   0.000000
     9  C    0.452989  -0.031606   5.029893   0.309890  -0.011223  -0.000345
    10  C   -0.105894  -0.013841   0.309890   5.402223  -0.043902   0.008282
    11  N    0.000075  -0.000007  -0.011223  -0.043902   6.211706   0.482776
    12  C    0.000024   0.000000  -0.000345   0.008282   0.482776   4.782118
    13  H    0.000002  -0.000000   0.000100  -0.000827  -0.025388   0.403544
    14  C    0.000002  -0.000000  -0.000532   0.008668  -0.054459   0.465896
    15  H   -0.000000  -0.000000   0.000005  -0.000203   0.003783  -0.041129
    16  C   -0.000088   0.000003   0.011472  -0.105838  -0.081806  -0.057660
    17  H   -0.000000   0.000001   0.000068  -0.012115   0.004022   0.009494
    18  C    0.010535   0.000003  -0.003735   0.312155   0.430940  -0.135673
    19  F   -0.000120   0.000001  -0.003549   0.001370  -0.026254   0.005485
    20  F    0.000041   0.000001  -0.001238   0.000205  -0.028074  -0.002611
    21  C   -0.011289   0.003430  -0.076788   0.390080   0.003627  -0.000163
    22  C   -0.001783   0.003635  -0.018331  -0.075307  -0.000095   0.000001
    23  H    0.003996  -0.000715  -0.001449  -0.012947  -0.000003   0.000000
    24  C   -0.000465   0.000911   0.000645   0.007215   0.000000  -0.000000
    25  H    0.000012  -0.000002   0.000009  -0.000448  -0.000000   0.000000
    26  C   -0.000010  -0.000007   0.000000   0.001295  -0.000000   0.000000
    27  C   -0.000013  -0.000061  -0.000260   0.006993   0.000001   0.000000
    28  H   -0.000000   0.000000   0.000003  -0.000435   0.000000  -0.000000
    29  C    0.000778  -0.000102   0.005314  -0.076721   0.000129  -0.000049
    30  H    0.000031   0.000003   0.000456  -0.013220  -0.000167  -0.000112
    31  H   -0.000000   0.000001   0.000000   0.000005   0.000000   0.000000
              13         14         15         16         17         18
     1  B    0.000208  -0.000831   0.000161   0.003773   0.000312  -0.066207
     2  N    0.000181  -0.000104   0.000002   0.000035  -0.000008  -0.011252
     3  C   -0.000006  -0.000002  -0.000000   0.000026   0.000000  -0.000344
     4  H    0.000000  -0.000000  -0.000000   0.000001  -0.000000   0.000092
     5  C   -0.000000  -0.000000   0.000000   0.000000   0.000000  -0.000499
     6  H   -0.000000   0.000000  -0.000000  -0.000000  -0.000000   0.000005
     7  C    0.000002   0.000002  -0.000000  -0.000088  -0.000000   0.010535
     8  H   -0.000000  -0.000000  -0.000000   0.000003   0.000001   0.000003
     9  C    0.000100  -0.000532   0.000005   0.011472   0.000068  -0.003735
    10  C   -0.000827   0.008668  -0.000203  -0.105838  -0.012115   0.312155
    11  N   -0.025388  -0.054459   0.003783  -0.081806   0.004022   0.430940
    12  C    0.403544   0.465896  -0.041129  -0.057660   0.009494  -0.135673
    13  H    0.590085  -0.040164  -0.003511   0.007419  -0.000066   0.002660
    14  C   -0.040164   4.772470   0.413445   0.523287  -0.042817  -0.037871
    15  H   -0.003511   0.413445   0.630925  -0.039608  -0.006114   0.009074
    16  C    0.007419   0.523287  -0.039608   4.932095   0.411932   0.449021
    17  H   -0.000066  -0.042817  -0.006114   0.411932   0.636165  -0.032448
    18  C    0.002660  -0.037871   0.009074   0.449021  -0.032448   5.022620
    19  F    0.002076   0.000394   0.000002  -0.000118   0.000000  -0.003512
    20  F   -0.000342  -0.000152  -0.000000   0.000046   0.000001  -0.001290
    21  C    0.000005   0.000688  -0.000001  -0.012359   0.001885  -0.073353
    22  C   -0.000000   0.000009   0.000000   0.000549  -0.000171   0.005970
    23  H   -0.000000  -0.000001   0.000000  -0.000010   0.000000   0.000960
    24  C   -0.000000  -0.000000  -0.000000  -0.000004  -0.000050  -0.000317
    25  H   -0.000000   0.000000  -0.000000  -0.000000   0.000000   0.000003
    26  C    0.000000   0.000000  -0.000000  -0.000008  -0.000016   0.000001
    27  C    0.000000  -0.000015  -0.000000  -0.000257   0.001242   0.000603
    28  H   -0.000000  -0.000000   0.000000   0.000016  -0.000003   0.000013
    29  C    0.000000   0.000282   0.000006  -0.001141   0.004824  -0.016385
    30  H   -0.000001   0.000645   0.000011   0.004811  -0.001023  -0.002080
    31  H    0.000000  -0.000000  -0.000000  -0.000000   0.000000   0.000000
              19         20         21         22         23         24
     1  B    0.450419   0.474700   0.002354  -0.000117  -0.000023   0.000002
     2  N   -0.027094  -0.027117   0.003794   0.000059  -0.000190  -0.000000
     3  C    0.005594  -0.002547  -0.000172  -0.000043  -0.000092   0.000001
     4  H    0.002425  -0.000383   0.000004   0.000001  -0.000001   0.000000
     5  C    0.000393  -0.000087   0.000572   0.000296   0.000384  -0.000011
     6  H    0.000002   0.000000  -0.000001   0.000003   0.000006  -0.000000
     7  C   -0.000120   0.000041  -0.011289  -0.001783   0.003996  -0.000465
     8  H    0.000001   0.000001   0.003430   0.003635  -0.000715   0.000911
     9  C   -0.003549  -0.001238  -0.076788  -0.018331  -0.001449   0.000645
    10  C    0.001370   0.000205   0.390080  -0.075307  -0.012947   0.007215
    11  N   -0.026254  -0.028074   0.003627  -0.000095  -0.000003   0.000000
    12  C    0.005485  -0.002611  -0.000163   0.000001   0.000000  -0.000000
    13  H    0.002076  -0.000342   0.000005  -0.000000  -0.000000  -0.000000
    14  C    0.000394  -0.000152   0.000688   0.000009  -0.000001  -0.000000
    15  H    0.000002  -0.000000  -0.000001   0.000000   0.000000  -0.000000
    16  C   -0.000118   0.000046  -0.012359   0.000549  -0.000010  -0.000004
    17  H    0.000000   0.000001   0.001885  -0.000171   0.000000  -0.000050
    18  C   -0.003512  -0.001290  -0.073353   0.005970   0.000960  -0.000317
    19  F    8.853696  -0.020072   0.000003  -0.000000  -0.000000  -0.000000
    20  F   -0.020072   8.845018   0.000004   0.000000   0.000000   0.000000
    21  C    0.000003   0.000004   5.025407   0.492951  -0.050781  -0.008394
    22  C   -0.000000   0.000000   0.492951   4.804363   0.404213   0.521358
    23  H   -0.000000   0.000000  -0.050781   0.404213   0.672129  -0.035121
    24  C   -0.000000   0.000000  -0.008394   0.521358  -0.035121   4.714122
    25  H    0.000000  -0.000000   0.008421  -0.036310  -0.012451   0.397937
    26  C   -0.000000   0.000000  -0.063260  -0.020527   0.009039   0.510249
    27  C    0.000000  -0.000000  -0.008814  -0.065249  -0.000675  -0.010248
    28  H    0.000000   0.000000   0.008326   0.000100   0.000053   0.008322
    29  C    0.000000  -0.000000   0.494373  -0.024568   0.009639  -0.065544
    30  H    0.000000  -0.000000  -0.049542   0.009279  -0.000173  -0.000625
    31  H   -0.000000   0.000000  -0.000501   0.009331  -0.000191  -0.043533
              25         26         27         28         29         30
     1  B    0.000000  -0.000000   0.000001   0.000000   0.000007  -0.000021
     2  N    0.000000  -0.000000   0.000001  -0.000000  -0.000074  -0.000002
     3  C   -0.000000   0.000000  -0.000000   0.000000   0.000002  -0.000000
     4  H   -0.000000   0.000000   0.000000  -0.000000  -0.000000  -0.000000
     5  C   -0.000000  -0.000000  -0.000000  -0.000000  -0.000004  -0.000002
     6  H    0.000000  -0.000000  -0.000000  -0.000000   0.000000   0.000000
     7  C    0.000012  -0.000010  -0.000013  -0.000000   0.000778   0.000031
     8  H   -0.000002  -0.000007  -0.000061   0.000000  -0.000102   0.000003
     9  C    0.000009   0.000000  -0.000260   0.000003   0.005314   0.000456
    10  C   -0.000448   0.001295   0.006993  -0.000435  -0.076721  -0.013220
    11  N   -0.000000  -0.000000   0.000001   0.000000   0.000129  -0.000167
    12  C    0.000000   0.000000   0.000000  -0.000000  -0.000049  -0.000112
    13  H   -0.000000   0.000000   0.000000  -0.000000   0.000000  -0.000001
    14  C    0.000000   0.000000  -0.000015  -0.000000   0.000282   0.000645
    15  H   -0.000000  -0.000000  -0.000000   0.000000   0.000006   0.000011
    16  C   -0.000000  -0.000008  -0.000257   0.000016  -0.001141   0.004811
    17  H    0.000000  -0.000016   0.001242  -0.000003   0.004824  -0.001023
    18  C    0.000003   0.000001   0.000603   0.000013  -0.016385  -0.002080
    19  F    0.000000  -0.000000   0.000000   0.000000   0.000000   0.000000
    20  F   -0.000000   0.000000  -0.000000   0.000000  -0.000000  -0.000000
    21  C    0.008421  -0.063260  -0.008814   0.008326   0.494373  -0.049542
    22  C   -0.036310  -0.020527  -0.065249   0.000100  -0.024568   0.009279
    23  H   -0.012451   0.009039  -0.000675   0.000053   0.009639  -0.000173
    24  C    0.397937   0.510249  -0.010248   0.008322  -0.065544  -0.000625
    25  H    0.668272  -0.045100   0.008350  -0.000211   0.000061   0.000053
    26  C   -0.045100   4.758983   0.512269  -0.044829  -0.021114   0.008885
    27  C    0.008350   0.512269   4.711822   0.397638   0.521090  -0.034199
    28  H   -0.000211  -0.044829   0.397638   0.668105  -0.036087  -0.012395
    29  C    0.000061  -0.021114   0.521090  -0.036087   4.808644   0.402355
    30  H    0.000053   0.008885  -0.034199  -0.012395   0.402355   0.670789
    31  H   -0.012270   0.402540  -0.043397  -0.012278   0.009386  -0.000192
              31
     1  B    0.000000
     2  N    0.000000
     3  C    0.000000
     4  H    0.000000
     5  C   -0.000000
     6  H   -0.000000
     7  C   -0.000000
     8  H    0.000001
     9  C    0.000000
    10  C    0.000005
    11  N    0.000000
    12  C    0.000000
    13  H    0.000000
    14  C   -0.000000
    15  H   -0.000000
    16  C   -0.000000
    17  H    0.000000
    18  C    0.000000
    19  F   -0.000000
    20  F    0.000000
    21  C   -0.000501
    22  C    0.009331
    23  H   -0.000191
    24  C   -0.043533
    25  H   -0.012270
    26  C    0.402540
    27  C   -0.043397
    28  H   -0.012278
    29  C    0.009386
    30  H   -0.000192
    31  H    0.668839
 Mulliken charges:
               1
     1  B    0.169212
     2  N   -0.179636
     3  C    0.105036
     4  H    0.063734
     5  C   -0.009216
     6  H    0.033155
     7  C   -0.039699
     8  H    0.023688
     9  C    0.137090
    10  C    0.049440
    11  N   -0.183434
    12  C    0.106363
    13  H    0.064027
    14  C   -0.008836
    15  H    0.033153
    16  C   -0.045589
    17  H    0.024884
    18  C    0.140312
    19  F   -0.241141
    20  F   -0.236104
    21  C   -0.080505
    22  C   -0.009616
    23  H    0.014406
    24  C    0.003551
    25  H    0.023675
    26  C   -0.008389
    27  C    0.003180
    28  H    0.023663
    29  C   -0.015100
    30  H    0.016437
    31  H    0.022262
 Sum of Mulliken charges =  -0.00000
 Mulliken charges with hydrogens summed into heavy atoms:
               1
     1  B    0.169212
     2  N   -0.179636
     3  C    0.168771
     5  C    0.023939
     7  C   -0.016012
     9  C    0.137090
    10  C    0.049440
    11  N   -0.183434
    12  C    0.170390
    14  C    0.024317
    16  C   -0.020705
    18  C    0.140312
    19  F   -0.241141
    20  F   -0.236104
    21  C   -0.080505
    22  C    0.004790
    24  C    0.027225
    26  C    0.013872
    27  C    0.026843
    29  C    0.001337
 Electronic spatial extent (au):  <R**2>=           8488.6931
 Charge=             -0.0000 electrons
 Dipole moment (field-independent basis, Debye):
    X=             -4.0972    Y=              1.3534    Z=              3.1931  Tot=              5.3679
 Quadrupole moment (field-independent basis, Debye-Ang):
   XX=            -87.3660   YY=           -118.7567   ZZ=            -87.6768
   XY=             -3.1506   XZ=             -1.6675   YZ=             -3.5431
 Traceless Quadrupole moment (field-independent basis, Debye-Ang):
   XX=             10.5671   YY=            -20.8235   ZZ=             10.2564
   XY=             -3.1506   XZ=             -1.6675   YZ=             -3.5431
 Octapole moment (field-independent basis, Debye-Ang**2):
  XXX=            606.2622  YYY=             14.0261  ZZZ=           -485.8123  XYY=            242.9224
  XXY=             31.7308  XXZ=           -117.8385  XZZ=            182.6507  YZZ=            -16.6745
  YYZ=           -185.0338  XYZ=              9.9761
 Hexadecapole moment (field-independent basis, Debye-Ang**3):
 XXXX=          -5776.1788 YYYY=           -369.3692 ZZZZ=          -4317.2770 XXXY=           -170.5359
 XXXZ=           1284.4910 YYYX=             33.9998 YYYZ=             56.3255 ZZZX=           1481.7864
 ZZZY=            -68.0367 XXYY=          -1163.7027 XXZZ=          -1445.5448 YYZZ=           -869.5299
 XXYZ=             28.8931 YYXZ=            547.0257 ZZXY=            100.6181
 N-N= 1.465767100727D+03 E-N=-5.061262513044D+03  KE= 9.065641491051D+02
 No NMR shielding tensors so no spin-rotation constants.
 Leave Link  601 at Tue Feb  1 14:48:47 2022, MaxMem= 11408506880 cpu:               5.1 elap:               0.5
 (Enter /lustre1/prg/gaussian/bin/G16_C01_Linda9.2_SSE4/g16/l9999.exe)
 Electronic transition elements 
                 1             2             3             4             5 
      1  -0.912095D+03 -0.912051D+03 -0.912047D+03 -0.912037D+03 -0.912034D+03
      2   0.189835D+01 -0.178008D+01 -0.746248D+00 -0.653087D+00  0.987469D-01
      3  -0.493167D-01 -0.786770D-01  0.598744D-02  0.168353D-02 -0.307630D+00
      4   0.254204D+01  0.144110D+01 -0.744838D+00  0.476594D+00 -0.729013D-02
      5  -0.187492D+00  0.251460D+00  0.110709D+00  0.103272D+00 -0.187414D-01
      6   0.575782D-02  0.110009D-01 -0.122518D-02  0.480137D-03  0.527056D-01
      7  -0.251036D+00 -0.204177D+00  0.111434D+00 -0.760854D-01 -0.199551D-02
      8  -0.159108D-01  0.382658D-01 -0.112456D-01 -0.735838D-01 -0.431360D+00
      9  -0.235088D+01  0.664697D-01 -0.506474D+00 -0.101211D+00 -0.547156D+00
     10  -0.318353D-01 -0.537195D-01  0.651762D-01 -0.151034D+00 -0.547040D+00
     11   0.721224D+00 -0.253468D+01 -0.103340D+01 -0.607461D+00  0.322908D+00
     12   0.166277D-02 -0.689305D-01 -0.358117D-02  0.278545D-03 -0.110713D-01
     13  -0.747801D+00 -0.118423D+01  0.785844D+00 -0.442555D+00 -0.261107D+00
     14  -0.500792D-01 -0.129980D-01  0.412173D-01 -0.455373D-01 -0.418975D+00
     15   0.217099D+00  0.270999D+01 -0.595944D-01  0.367738D+00  0.704538D-01
     16  -0.552027D-01  0.795397D-01  0.137847D-01  0.269641D-01  0.339539D+00
                 6 
      1  -0.911987D+03
      2   0.875980D+00
      3   0.878241D-01
      4  -0.682360D+00
      5  -0.178844D+00
      6  -0.173268D-01
      7   0.140008D+00
      8   0.960617D-02
      9   0.307787D-01
     10   0.114081D+00
     11   0.110068D+01
     12   0.756188D-01
     13   0.167109D+00
     14   0.270734D-01
     15  -0.174727D+01
     16  -0.875407D-01
 Unable to Open any file for archive entry.
 1\1\VILNIUS-FIZIKA81\FOpt\RM062X TD-FC\CC-pVDZ\C15H11B1F2N2\TOLISTE\01
 -Feb-2022\0\\#p m062x cc-pvdz scrf=(cpcm,solvent=Acetone) td=(nstate=6
 ,root=1) opt=tight nosymm density=all int=ultrafine fchk\\BDP-phenyl, 
 optimized S1 in toluene\\0,1\B,-0.0157078304,-0.2541107731,0.010890577
 2\N,0.0011965818,-0.0684489481,1.5432354495\C,1.096890652,0.0371010531
 ,2.3048268234\H,2.0886827913,0.0363942323,1.857198785\C,0.7250864425,0
 .1462024339,3.6720638428\H,1.4160392169,0.2506349684,4.5037660418\C,-0
 .6603192659,0.1098114707,3.7220112077\H,-1.2972248061,0.2001067388,4.5
 964997903\C,-1.1239585393,-0.0267189456,2.3783135188\C,-2.4457785632,-
 0.0330327567,1.8510328424\N,-1.4727864014,0.0445297285,-0.4090998194\C
 ,-1.8997789174,0.1565009091,-1.6727338842\H,-1.1939276784,0.1644477422
 ,-2.5009014328\C,-3.3183524739,0.2274262222,-1.6985815523\H,-3.9266586
 048,0.3169426455,-2.5941235464\C,-3.7550506635,0.150346544,-0.38449303
 91\H,-4.7796276312,0.1588881576,-0.0273377485\C,-2.5920365814,0.046667
 8966,0.4383937977\F,0.8670781956,0.6347710308,-0.6014026835\F,0.328528
 2183,-1.5676544997,-0.3312102023\C,-3.6087549462,-0.0474863625,2.75256
 49477\C,-3.6726566925,-0.9709085124,3.8109448626\H,-2.8648928298,-1.69
 31127651,3.9417061699\C,-4.7669615577,-0.9887507851,4.6716159851\H,-4.
 8040099402,-1.7187160215,5.4809196958\C,-5.8152568777,-0.083932533,4.4
 950737859\C,-5.7602267232,0.8411242974,3.4516542671\H,-6.5686255272,1.
 5599960899,3.3141727197\C,-4.6683451245,0.8611393589,2.5872532532\H,-4
 .6184922001,1.6084236547,1.794075869\H,-6.6714757223,-0.0985842718,5.1
 700906759\\Version=ES64L-G16RevC.01\HF=-912.191721\RMSD=4.979e-09\RMSF
 =1.847e-06\Dipole=-1.6119479,0.5324646,1.2562436\Quadrupole=7.8563969,
 -15.4817656,7.6253686,-2.3423843,-1.2397345,-2.6341738\PG=C01 [X(C15H1
 1B1F2N2)]\\@
 The archive entry for this job was punched.


 ERROR IS A HARDY PLANT... IT FLOURISHETH IN EVERY SOIL.
            MARTIN FARQUHAR TUPPER
 Job cpu time:       0 days  0 hours  3 minutes 24.0 seconds.
 Elapsed time:       0 days  2 hours 26 minutes 48.5 seconds.
 File lengths (MBytes):  RWF=    779 Int=      0 D2E=      0 Chk=     37 Scr=      1
 Normal termination of Gaussian 16 at Tue Feb  1 14:48:50 2022.
