 Entering Gaussian System, Link 0=/lustre1/prg/gaussian/bin/G16_C01_Linda_AVX2/g16/g16
 Initial command:
 /lustre1/prg/gaussian/bin/G16_C01_Linda_AVX2/g16/l1.exe "/lustre1/prg/webmo/data/webmo20/toliste/4363/scratch/Gau-1602588.inp" -scrdir="/lustre1/prg/webmo/data/webmo20/toliste/4363/scratch/"
 Default is to use a total of  32 processors:
                               32 via shared-memory
                                1 via Linda
 Entering Link 1 = /lustre1/prg/gaussian/bin/G16_C01_Linda_AVX2/g16/l1.exe PID=   1602589.
  
 Copyright (c) 1988-2019, Gaussian, Inc.  All Rights Reserved.
  
 This is part of the Gaussian(R) 16 program.  It is based on
 the Gaussian(R) 09 system (copyright 2009, Gaussian, Inc.),
 the Gaussian(R) 03 system (copyright 2003, Gaussian, Inc.),
 the Gaussian(R) 98 system (copyright 1998, Gaussian, Inc.),
 the Gaussian(R) 94 system (copyright 1995, Gaussian, Inc.),
 the Gaussian 92(TM) system (copyright 1992, Gaussian, Inc.),
 the Gaussian 90(TM) system (copyright 1990, Gaussian, Inc.),
 the Gaussian 88(TM) system (copyright 1988, Gaussian, Inc.),
 the Gaussian 86(TM) system (copyright 1986, Carnegie Mellon
 University), and the Gaussian 82(TM) system (copyright 1983,
 Carnegie Mellon University). Gaussian is a federally registered
 trademark of Gaussian, Inc.
  
 This software contains proprietary and confidential information,
 including trade secrets, belonging to Gaussian, Inc.
  
 This software is provided under written license and may be
 used, copied, transmitted, or stored only in accord with that
 written license.
  
 The following legend is applicable only to US Government
 contracts under FAR:
  
                    RESTRICTED RIGHTS LEGEND
  
 Use, reproduction and disclosure by the US Government is
 subject to restrictions as set forth in subparagraphs (a)
 and (c) of the Commercial Computer Software - Restricted
 Rights clause in FAR 52.227-19.
  
 Gaussian, Inc.
 340 Quinnipiac St., Bldg. 40, Wallingford CT 06492
  
  
 ---------------------------------------------------------------
 Warning -- This program may not be used in any manner that
 competes with the business of Gaussian, Inc. or will provide
 assistance to any competitor of Gaussian, Inc.  The licensee
 of this program is prohibited from giving any competitor of
 Gaussian, Inc. access to this program.  By using this program,
 the user acknowledges that Gaussian, Inc. is engaged in the
 business of creating and licensing software in the field of
 computational chemistry and represents and warrants to the
 licensee that it is not a competitor of Gaussian, Inc. and that
 it will not use this program in any manner prohibited above.
 ---------------------------------------------------------------
  

 Cite this work as:
 Gaussian 16, Revision C.01,
 M. J. Frisch, G. W. Trucks, H. B. Schlegel, G. E. Scuseria, 
 M. A. Robb, J. R. Cheeseman, G. Scalmani, V. Barone, 
 G. A. Petersson, H. Nakatsuji, X. Li, M. Caricato, A. V. Marenich, 
 J. Bloino, B. G. Janesko, R. Gomperts, B. Mennucci, H. P. Hratchian, 
 J. V. Ortiz, A. F. Izmaylov, J. L. Sonnenberg, D. Williams-Young, 
 F. Ding, F. Lipparini, F. Egidi, J. Goings, B. Peng, A. Petrone, 
 T. Henderson, D. Ranasinghe, V. G. Zakrzewski, J. Gao, N. Rega, 
 G. Zheng, W. Liang, M. Hada, M. Ehara, K. Toyota, R. Fukuda, 
 J. Hasegawa, M. Ishida, T. Nakajima, Y. Honda, O. Kitao, H. Nakai, 
 T. Vreven, K. Throssell, J. A. Montgomery, Jr., J. E. Peralta, 
 F. Ogliaro, M. J. Bearpark, J. J. Heyd, E. N. Brothers, K. N. Kudin, 
 V. N. Staroverov, T. A. Keith, R. Kobayashi, J. Normand, 
 K. Raghavachari, A. P. Rendell, J. C. Burant, S. S. Iyengar, 
 J. Tomasi, M. Cossi, J. M. Millam, M. Klene, C. Adamo, R. Cammi, 
 J. W. Ochterski, R. L. Martin, K. Morokuma, O. Farkas, 
 J. B. Foresman, and D. J. Fox, Gaussian, Inc., Wallingford CT, 2019.
 
 ******************************************
 Gaussian 16:  ES64L-G16RevC.01  3-Jul-2019
                31-Jan-2022 
 ******************************************
 %LindaWorkers=fizika341,fizika342
 %chk=bodipy.chk
 SetLPE:  input flags=" -opt "Tsnet.Node.lindarsharg: ssh" "
 SetLPE:    new flags=" -opt "Tsnet.Node.lindarsharg: ssh" -opt 'Tsnet.Node.lindarsharg: ssh'  -nodelist 'fizika341.fizika.bullx fizika342.fizika.bullx' -env GAUSS_MDEF=49660559360 -env GAUSS_EXEDIR="/lustre1/prg/gaussian/bin/G16_C01_Linda_AVX2/g16/bsd:/lustre1/prg/gaussian/bin/G16_C01_Linda_AVX2/g16/private:/lustre1/prg/gaussian/bin/G16_C01_Linda_AVX2/g16""
 Will use up to    2 processors via Linda.
 ----------------------------------------------------------------------
 #p m062x cc-pvdz scrf=(cpcm,solvent=DiMethylSulfoxide) td=(nstate=6,ro
 ot=1) opt=tight nosymm density=all int=ultrafine fchk
 ----------------------------------------------------------------------
 1/7=10,18=20,19=15,26=6,38=1/1,3;
 2/9=110,12=2,15=1,17=6,18=5,40=1/2;
 3/5=16,11=9,25=1,30=1,70=2101,71=1,72=21,74=-55,75=-5/1,2,3,8;
 4//1;
 5/5=2,38=5,53=21/2;
 8/6=1,10=1,107=1,108=6/1;
 9/8=1,15=2,30=10,41=6,42=1,70=2/14;
 10/5=4,28=1,31=1/2;
 6/7=2,8=2,9=2,10=2,22=-2/1;
 7/12=6,13=5,14=1,30=1/1,2,3,16;
 1/7=10,18=20,19=15,26=6/3(2);
 2/9=110,15=1/2;
 99//99;
 2/9=110,15=1/2;
 3/5=16,11=9,25=1,30=1,70=2105,71=1,72=21,74=-55,75=-5/1,2,3,8;
 4/5=5,16=3,69=1/1;
 5/5=2,38=5,53=21/2;
 8/6=1,10=1,107=1,108=6/1;
 9/8=1,15=2,30=10,41=6,42=1,49=4,70=2/14;
 10/5=4,28=1,31=1/2;
 7/12=6,13=5,14=1,30=1/1,2,3,16;
 1/7=10,18=20,19=15,26=6/3(-8);
 2/9=110,15=1/2;
 6/7=2,8=2,9=2,10=2,22=-2/1;
 99/9=10/99;
 Leave Link    1 at Mon Jan 31 13:48:23 2022, MaxMem=           0 cpu:               2.5 elap:               0.1
 (Enter /lustre1/prg/gaussian/bin/G16_C01_Linda_AVX2/g16/l101.exe)
 -----------------------------------
 BDP-phenyl, optimized S1 in toluene
 -----------------------------------
 Symbolic Z-matrix:
 Charge =  0 Multiplicity = 1
 B                    -0.02231  -0.31808   0.01333 
 N                    -0.00171  -0.08569   1.54179 
 C                     1.0918    0.04446   2.29711 
 H                     2.08119   0.03819   1.84491 
 C                     0.7197    0.18272   3.66194 
 H                     1.40889   0.30959   4.49193 
 C                    -0.66741   0.14007   3.71363 
 H                    -1.30494   0.25247   4.58505 
 C                    -1.12869  -0.02985   2.37723 
 C                    -2.45225  -0.04016   1.84905 
 N                    -1.46798   0.04399  -0.40749 
 C                    -1.88279   0.18662  -1.66883 
 H                    -1.16857   0.19057  -2.48945 
 C                    -3.29967   0.28411  -1.70166 
 H                    -3.90248   0.3967   -2.59829 
 C                    -3.74698   0.19189  -0.39007 
 H                    -4.77383   0.20989  -0.04061 
 C                    -2.59401   0.05427   0.43543 
 F                     0.89563   0.51262  -0.61981 
 F                     0.24685  -1.65443  -0.28466 
 C                    -3.61113  -0.05792   2.75119 
 C                    -3.65983  -0.9701    3.82109 
 H                    -2.84201  -1.68028   3.95478 
 C                    -4.75117  -0.99431   4.68413 
 H                    -4.77664  -1.71742   5.50007 
 C                    -5.81224  -0.10577   4.50205 
 C                    -5.77179   0.80971   3.44993 
 H                    -6.58902   1.51803   3.30947 
 C                    -4.68401   0.83511   2.58143 
 H                    -4.64371   1.57825   1.78411 
 H                    -6.66629  -0.12526   5.17963 
 
 ITRead=  0  0  0  0  0  0  0  0  0  0  0  0  0  0  0  0  0  0  0  0
 ITRead=  0  0  0  0  0  0  0  0  0  0  0
 MicOpt= -1 -1 -1 -1 -1 -1 -1 -1 -1 -1 -1 -1 -1 -1 -1 -1 -1 -1 -1 -1
 MicOpt= -1 -1 -1 -1 -1 -1 -1 -1 -1 -1 -1
 NAtoms=     31 NQM=       31 NQMF=       0 NMMI=      0 NMMIF=      0
                NMic=       0 NMicF=      0.
                    Isotopes and Nuclear Properties:
 (Nuclear quadrupole moments (NQMom) in fm**2, nuclear magnetic moments (NMagM)
  in nuclear magnetons)

  Atom         1           2           3           4           5           6           7           8           9          10
 IAtWgt=          11          14          12           1          12           1          12           1          12          12
 AtmWgt=  11.0093053  14.0030740  12.0000000   1.0078250  12.0000000   1.0078250  12.0000000   1.0078250  12.0000000  12.0000000
 NucSpn=           3           2           0           1           0           1           0           1           0           0
 AtZEff=  -0.0000000  -0.0000000  -0.0000000  -0.0000000  -0.0000000  -0.0000000  -0.0000000  -0.0000000  -0.0000000  -0.0000000
 NQMom=    4.0590000   2.0440000   0.0000000   0.0000000   0.0000000   0.0000000   0.0000000   0.0000000   0.0000000   0.0000000
 NMagM=    2.6886370   0.4037610   0.0000000   2.7928460   0.0000000   2.7928460   0.0000000   2.7928460   0.0000000   0.0000000
 AtZNuc=   5.0000000   7.0000000   6.0000000   1.0000000   6.0000000   1.0000000   6.0000000   1.0000000   6.0000000   6.0000000

  Atom        11          12          13          14          15          16          17          18          19          20
 IAtWgt=          14          12           1          12           1          12           1          12          19          19
 AtmWgt=  14.0030740  12.0000000   1.0078250  12.0000000   1.0078250  12.0000000   1.0078250  12.0000000  18.9984032  18.9984032
 NucSpn=           2           0           1           0           1           0           1           0           1           1
 AtZEff=  -0.0000000  -0.0000000  -0.0000000  -0.0000000  -0.0000000  -0.0000000  -0.0000000  -0.0000000  -0.0000000  -0.0000000
 NQMom=    2.0440000   0.0000000   0.0000000   0.0000000   0.0000000   0.0000000   0.0000000   0.0000000   0.0000000   0.0000000
 NMagM=    0.4037610   0.0000000   2.7928460   0.0000000   2.7928460   0.0000000   2.7928460   0.0000000   2.6288670   2.6288670
 AtZNuc=   7.0000000   6.0000000   1.0000000   6.0000000   1.0000000   6.0000000   1.0000000   6.0000000   9.0000000   9.0000000

  Atom        21          22          23          24          25          26          27          28          29          30
 IAtWgt=          12          12           1          12           1          12          12           1          12           1
 AtmWgt=  12.0000000  12.0000000   1.0078250  12.0000000   1.0078250  12.0000000  12.0000000   1.0078250  12.0000000   1.0078250
 NucSpn=           0           0           1           0           1           0           0           1           0           1
 AtZEff=  -0.0000000  -0.0000000  -0.0000000  -0.0000000  -0.0000000  -0.0000000  -0.0000000  -0.0000000  -0.0000000  -0.0000000
 NQMom=    0.0000000   0.0000000   0.0000000   0.0000000   0.0000000   0.0000000   0.0000000   0.0000000   0.0000000   0.0000000
 NMagM=    0.0000000   0.0000000   2.7928460   0.0000000   2.7928460   0.0000000   0.0000000   2.7928460   0.0000000   2.7928460
 AtZNuc=   6.0000000   6.0000000   1.0000000   6.0000000   1.0000000   6.0000000   6.0000000   1.0000000   6.0000000   1.0000000

  Atom        31
 IAtWgt=           1
 AtmWgt=   1.0078250
 NucSpn=           1
 AtZEff=  -0.0000000
 NQMom=    0.0000000
 NMagM=    2.7928460
 AtZNuc=   1.0000000
 Leave Link  101 at Mon Jan 31 13:48:24 2022, MaxMem= 49660559360 cpu:              26.3 elap:               0.8
 (Enter /lustre1/prg/gaussian/bin/G16_C01_Linda_AVX2/g16/l103.exe)

 GradGradGradGradGradGradGradGradGradGradGradGradGradGradGradGradGradGrad
 Berny optimization.
 Initialization pass.
                           ----------------------------
                           !    Initial Parameters    !
                           ! (Angstroms and Degrees)  !
 --------------------------                            --------------------------
 ! Name  Definition              Value          Derivative Info.                !
 --------------------------------------------------------------------------------
 ! R1    R(1,2)                  1.5462         estimate D2E/DX2                !
 ! R2    R(1,11)                 1.5486         estimate D2E/DX2                !
 ! R3    R(1,19)                 1.3905         estimate D2E/DX2                !
 ! R4    R(1,20)                 1.3954         estimate D2E/DX2                !
 ! R5    R(2,3)                  1.3354         estimate D2E/DX2                !
 ! R6    R(2,9)                  1.404          estimate D2E/DX2                !
 ! R7    R(3,4)                  1.0878         estimate D2E/DX2                !
 ! R8    R(3,5)                  1.4214         estimate D2E/DX2                !
 ! R9    R(5,6)                  1.0863         estimate D2E/DX2                !
 ! R10   R(5,7)                  1.3887         estimate D2E/DX2                !
 ! R11   R(7,8)                  1.0856         estimate D2E/DX2                !
 ! R12   R(7,9)                  1.4239         estimate D2E/DX2                !
 ! R13   R(9,10)                 1.4251         estimate D2E/DX2                !
 ! R14   R(10,18)                1.4238         estimate D2E/DX2                !
 ! R15   R(10,21)                1.4687         estimate D2E/DX2                !
 ! R16   R(11,12)                1.3354         estimate D2E/DX2                !
 ! R17   R(11,18)                1.4066         estimate D2E/DX2                !
 ! R18   R(12,13)                1.0879         estimate D2E/DX2                !
 ! R19   R(12,14)                1.4206         estimate D2E/DX2                !
 ! R20   R(14,15)                1.0863         estimate D2E/DX2                !
 ! R21   R(14,16)                1.3888         estimate D2E/DX2                !
 ! R22   R(16,17)                1.0848         estimate D2E/DX2                !
 ! R23   R(16,18)                1.4247         estimate D2E/DX2                !
 ! R24   R(21,22)                1.4068         estimate D2E/DX2                !
 ! R25   R(21,29)                1.4062         estimate D2E/DX2                !
 ! R26   R(22,23)                1.0914         estimate D2E/DX2                !
 ! R27   R(22,24)                1.3916         estimate D2E/DX2                !
 ! R28   R(24,25)                1.0905         estimate D2E/DX2                !
 ! R29   R(24,26)                1.3959         estimate D2E/DX2                !
 ! R30   R(26,27)                1.3952         estimate D2E/DX2                !
 ! R31   R(26,31)                1.0904         estimate D2E/DX2                !
 ! R32   R(27,28)                1.0906         estimate D2E/DX2                !
 ! R33   R(27,29)                1.3922         estimate D2E/DX2                !
 ! R34   R(29,30)                1.0907         estimate D2E/DX2                !
 ! A1    A(2,1,11)             104.2368         estimate D2E/DX2                !
 ! A2    A(2,1,19)             110.5806         estimate D2E/DX2                !
 ! A3    A(2,1,20)             110.6387         estimate D2E/DX2                !
 ! A4    A(11,1,19)            110.6626         estimate D2E/DX2                !
 ! A5    A(11,1,20)            110.2405         estimate D2E/DX2                !
 ! A6    A(19,1,20)            110.3381         estimate D2E/DX2                !
 ! A7    A(1,2,3)              125.7825         estimate D2E/DX2                !
 ! A8    A(1,2,9)              125.6983         estimate D2E/DX2                !
 ! A9    A(3,2,9)              108.4737         estimate D2E/DX2                !
 ! A10   A(2,3,4)              120.603          estimate D2E/DX2                !
 ! A11   A(2,3,5)              109.7685         estimate D2E/DX2                !
 ! A12   A(4,3,5)              129.6279         estimate D2E/DX2                !
 ! A13   A(3,5,6)              125.3761         estimate D2E/DX2                !
 ! A14   A(3,5,7)              107.1121         estimate D2E/DX2                !
 ! A15   A(6,5,7)              127.5076         estimate D2E/DX2                !
 ! A16   A(5,7,8)              127.8286         estimate D2E/DX2                !
 ! A17   A(5,7,9)              106.9958         estimate D2E/DX2                !
 ! A18   A(8,7,9)              125.1335         estimate D2E/DX2                !
 ! A19   A(2,9,7)              107.6485         estimate D2E/DX2                !
 ! A20   A(2,9,10)             121.6466         estimate D2E/DX2                !
 ! A21   A(7,9,10)             130.5098         estimate D2E/DX2                !
 ! A22   A(9,10,18)            117.3846         estimate D2E/DX2                !
 ! A23   A(9,10,21)            120.3479         estimate D2E/DX2                !
 ! A24   A(18,10,21)           122.145          estimate D2E/DX2                !
 ! A25   A(1,11,12)            124.8623         estimate D2E/DX2                !
 ! A26   A(1,11,18)            125.8873         estimate D2E/DX2                !
 ! A27   A(12,11,18)           108.4552         estimate D2E/DX2                !
 ! A28   A(11,12,13)           120.5923         estimate D2E/DX2                !
 ! A29   A(11,12,14)           109.8136         estimate D2E/DX2                !
 ! A30   A(13,12,14)           129.5759         estimate D2E/DX2                !
 ! A31   A(12,14,15)           125.4268         estimate D2E/DX2                !
 ! A32   A(12,14,16)           107.1483         estimate D2E/DX2                !
 ! A33   A(15,14,16)           127.4206         estimate D2E/DX2                !
 ! A34   A(14,16,17)           127.4429         estimate D2E/DX2                !
 ! A35   A(14,16,18)           107.0354         estimate D2E/DX2                !
 ! A36   A(17,16,18)           125.5195         estimate D2E/DX2                !
 ! A37   A(10,18,11)           120.9814         estimate D2E/DX2                !
 ! A38   A(10,18,16)           131.4712         estimate D2E/DX2                !
 ! A39   A(11,18,16)           107.5381         estimate D2E/DX2                !
 ! A40   A(10,21,22)           120.1513         estimate D2E/DX2                !
 ! A41   A(10,21,29)           121.3444         estimate D2E/DX2                !
 ! A42   A(22,21,29)           118.5007         estimate D2E/DX2                !
 ! A43   A(21,22,23)           119.2851         estimate D2E/DX2                !
 ! A44   A(21,22,24)           120.6703         estimate D2E/DX2                !
 ! A45   A(23,22,24)           120.0261         estimate D2E/DX2                !
 ! A46   A(22,24,25)           119.5953         estimate D2E/DX2                !
 ! A47   A(22,24,26)           120.2761         estimate D2E/DX2                !
 ! A48   A(25,24,26)           120.1269         estimate D2E/DX2                !
 ! A49   A(24,26,27)           119.6026         estimate D2E/DX2                !
 ! A50   A(24,26,31)           120.1958         estimate D2E/DX2                !
 ! A51   A(27,26,31)           120.2014         estimate D2E/DX2                !
 ! A52   A(26,27,28)           120.1034         estimate D2E/DX2                !
 ! A53   A(26,27,29)           120.3347         estimate D2E/DX2                !
 ! A54   A(28,27,29)           119.5586         estimate D2E/DX2                !
 ! A55   A(21,29,27)           120.6133         estimate D2E/DX2                !
 ! A56   A(21,29,30)           119.5221         estimate D2E/DX2                !
 ! A57   A(27,29,30)           119.8244         estimate D2E/DX2                !
 ! D1    D(11,1,2,3)          -162.9026         estimate D2E/DX2                !
 ! D2    D(11,1,2,9)            19.8349         estimate D2E/DX2                !
 ! D3    D(19,1,2,3)           -43.9469         estimate D2E/DX2                !
 ! D4    D(19,1,2,9)           138.7906         estimate D2E/DX2                !
 ! D5    D(20,1,2,3)            78.6102         estimate D2E/DX2                !
 ! D6    D(20,1,2,9)           -98.6524         estimate D2E/DX2                !
 ! D7    D(2,1,11,12)          169.1902         estimate D2E/DX2                !
 ! D8    D(2,1,11,18)          -22.2185         estimate D2E/DX2                !
 ! D9    D(19,1,11,12)          50.2904         estimate D2E/DX2                !
 ! D10   D(19,1,11,18)        -141.1183         estimate D2E/DX2                !
 ! D11   D(20,1,11,12)         -72.0506         estimate D2E/DX2                !
 ! D12   D(20,1,11,18)          96.5407         estimate D2E/DX2                !
 ! D13   D(1,2,3,4)              2.9299         estimate D2E/DX2                !
 ! D14   D(1,2,3,5)           -177.3007         estimate D2E/DX2                !
 ! D15   D(9,2,3,4)           -179.4137         estimate D2E/DX2                !
 ! D16   D(9,2,3,5)              0.3557         estimate D2E/DX2                !
 ! D17   D(1,2,9,7)            177.4582         estimate D2E/DX2                !
 ! D18   D(1,2,9,10)            -7.1168         estimate D2E/DX2                !
 ! D19   D(3,2,9,7)             -0.2006         estimate D2E/DX2                !
 ! D20   D(3,2,9,10)           175.2243         estimate D2E/DX2                !
 ! D21   D(2,3,5,6)           -179.6786         estimate D2E/DX2                !
 ! D22   D(2,3,5,7)             -0.3767         estimate D2E/DX2                !
 ! D23   D(4,3,5,6)              0.0637         estimate D2E/DX2                !
 ! D24   D(4,3,5,7)            179.3656         estimate D2E/DX2                !
 ! D25   D(3,5,7,8)           -177.4725         estimate D2E/DX2                !
 ! D26   D(3,5,7,9)              0.2402         estimate D2E/DX2                !
 ! D27   D(6,5,7,8)              1.81           estimate D2E/DX2                !
 ! D28   D(6,5,7,9)            179.5227         estimate D2E/DX2                !
 ! D29   D(5,7,9,2)             -0.034          estimate D2E/DX2                !
 ! D30   D(5,7,9,10)          -174.9099         estimate D2E/DX2                !
 ! D31   D(8,7,9,2)            177.757          estimate D2E/DX2                !
 ! D32   D(8,7,9,10)             2.881          estimate D2E/DX2                !
 ! D33   D(2,9,10,18)           -7.4332         estimate D2E/DX2                !
 ! D34   D(2,9,10,21)          176.5061         estimate D2E/DX2                !
 ! D35   D(7,9,10,18)          166.8291         estimate D2E/DX2                !
 ! D36   D(7,9,10,21)           -9.2316         estimate D2E/DX2                !
 ! D37   D(9,10,18,11)           5.2187         estimate D2E/DX2                !
 ! D38   D(9,10,18,16)        -173.518          estimate D2E/DX2                !
 ! D39   D(21,10,18,11)       -178.7964         estimate D2E/DX2                !
 ! D40   D(21,10,18,16)          2.4669         estimate D2E/DX2                !
 ! D41   D(9,10,21,22)         -48.0529         estimate D2E/DX2                !
 ! D42   D(9,10,21,29)         131.2477         estimate D2E/DX2                !
 ! D43   D(18,10,21,22)        136.0786         estimate D2E/DX2                !
 ! D44   D(18,10,21,29)        -44.6208         estimate D2E/DX2                !
 ! D45   D(1,11,12,13)          -8.8275         estimate D2E/DX2                !
 ! D46   D(1,11,12,14)         169.7613         estimate D2E/DX2                !
 ! D47   D(18,11,12,13)       -179.101          estimate D2E/DX2                !
 ! D48   D(18,11,12,14)         -0.5122         estimate D2E/DX2                !
 ! D49   D(1,11,18,10)          11.7687         estimate D2E/DX2                !
 ! D50   D(1,11,18,16)        -169.224          estimate D2E/DX2                !
 ! D51   D(12,11,18,10)       -178.0834         estimate D2E/DX2                !
 ! D52   D(12,11,18,16)          0.9239         estimate D2E/DX2                !
 ! D53   D(11,12,14,15)       -179.3992         estimate D2E/DX2                !
 ! D54   D(11,12,14,16)         -0.1077         estimate D2E/DX2                !
 ! D55   D(13,12,14,15)         -0.9753         estimate D2E/DX2                !
 ! D56   D(13,12,14,16)        178.3163         estimate D2E/DX2                !
 ! D57   D(12,14,16,17)       -178.815          estimate D2E/DX2                !
 ! D58   D(12,14,16,18)          0.6698         estimate D2E/DX2                !
 ! D59   D(15,14,16,17)          0.4581         estimate D2E/DX2                !
 ! D60   D(15,14,16,18)        179.9429         estimate D2E/DX2                !
 ! D61   D(14,16,18,10)        177.8861         estimate D2E/DX2                !
 ! D62   D(14,16,18,11)         -0.9781         estimate D2E/DX2                !
 ! D63   D(17,16,18,10)         -2.6165         estimate D2E/DX2                !
 ! D64   D(17,16,18,11)        178.5194         estimate D2E/DX2                !
 ! D65   D(10,21,22,23)         -1.7071         estimate D2E/DX2                !
 ! D66   D(10,21,22,24)        179.8587         estimate D2E/DX2                !
 ! D67   D(29,21,22,23)        178.9726         estimate D2E/DX2                !
 ! D68   D(29,21,22,24)          0.5384         estimate D2E/DX2                !
 ! D69   D(10,21,29,27)       -179.6554         estimate D2E/DX2                !
 ! D70   D(10,21,29,30)         -1.9676         estimate D2E/DX2                !
 ! D71   D(22,21,29,27)         -0.3436         estimate D2E/DX2                !
 ! D72   D(22,21,29,30)        177.3442         estimate D2E/DX2                !
 ! D73   D(21,22,24,25)        179.2105         estimate D2E/DX2                !
 ! D74   D(21,22,24,26)         -0.3177         estimate D2E/DX2                !
 ! D75   D(23,22,24,25)          0.7878         estimate D2E/DX2                !
 ! D76   D(23,22,24,26)       -178.7403         estimate D2E/DX2                !
 ! D77   D(22,24,26,27)         -0.1076         estimate D2E/DX2                !
 ! D78   D(22,24,26,31)       -179.9429         estimate D2E/DX2                !
 ! D79   D(25,24,26,27)       -179.6332         estimate D2E/DX2                !
 ! D80   D(25,24,26,31)          0.5314         estimate D2E/DX2                !
 ! D81   D(24,26,27,28)       -179.042          estimate D2E/DX2                !
 ! D82   D(24,26,27,29)          0.302          estimate D2E/DX2                !
 ! D83   D(31,26,27,28)          0.7933         estimate D2E/DX2                !
 ! D84   D(31,26,27,29)       -179.8627         estimate D2E/DX2                !
 ! D85   D(26,27,29,21)         -0.0728         estimate D2E/DX2                !
 ! D86   D(26,27,29,30)       -177.7536         estimate D2E/DX2                !
 ! D87   D(28,27,29,21)        179.2748         estimate D2E/DX2                !
 ! D88   D(28,27,29,30)          1.594          estimate D2E/DX2                !
 --------------------------------------------------------------------------------
 Trust Radius=3.00D-01 FncErr=5.00D-06 GrdErr=5.00D-06 EigMax=2.50D+02 EigMin=1.00D-04
 Number of steps in this run=    186 maximum allowed number of steps=    186.
 GradGradGradGradGradGradGradGradGradGradGradGradGradGradGradGradGradGrad

 Leave Link  103 at Mon Jan 31 13:48:24 2022, MaxMem= 49660559360 cpu:               0.6 elap:               0.0
 (Enter /lustre1/prg/gaussian/bin/G16_C01_Linda_AVX2/g16/l202.exe)
                          Input orientation:                          
 ---------------------------------------------------------------------
 Center     Atomic      Atomic             Coordinates (Angstroms)
 Number     Number       Type             X           Y           Z
 ---------------------------------------------------------------------
      1          5           0       -0.022314   -0.318076    0.013326
      2          7           0       -0.001707   -0.085693    1.541792
      3          6           0        1.091803    0.044455    2.297107
      4          1           0        2.081188    0.038188    1.844910
      5          6           0        0.719696    0.182717    3.661938
      6          1           0        1.408889    0.309587    4.491930
      7          6           0       -0.667405    0.140073    3.713632
      8          1           0       -1.304943    0.252470    4.585053
      9          6           0       -1.128691   -0.029848    2.377234
     10          6           0       -2.452248   -0.040163    1.849047
     11          7           0       -1.467979    0.043992   -0.407485
     12          6           0       -1.882790    0.186621   -1.668830
     13          1           0       -1.168572    0.190570   -2.489452
     14          6           0       -3.299670    0.284113   -1.701663
     15          1           0       -3.902475    0.396698   -2.598289
     16          6           0       -3.746979    0.191894   -0.390067
     17          1           0       -4.773831    0.209893   -0.040610
     18          6           0       -2.594010    0.054270    0.435426
     19          9           0        0.895627    0.512622   -0.619808
     20          9           0        0.246848   -1.654425   -0.284657
     21          6           0       -3.611125   -0.057918    2.751186
     22          6           0       -3.659829   -0.970100    3.821089
     23          1           0       -2.842011   -1.680278    3.954782
     24          6           0       -4.751175   -0.994310    4.684132
     25          1           0       -4.776635   -1.717415    5.500070
     26          6           0       -5.812242   -0.105768    4.502054
     27          6           0       -5.771788    0.809705    3.449932
     28          1           0       -6.589016    1.518026    3.309473
     29          6           0       -4.684012    0.835107    2.581429
     30          1           0       -4.643713    1.578247    1.784107
     31          1           0       -6.666295   -0.125256    5.179633
 ---------------------------------------------------------------------
                    Distance matrix (angstroms):
                    1          2          3          4          5
     1  B    0.000000
     2  N    1.546168   0.000000
     3  C    2.566776   1.335366   0.000000
     4  H    2.811822   2.108478   1.087844   0.000000
     5  C    3.756826   2.255545   1.421388   2.275113   0.000000
     6  H    4.743437   3.293834   2.233402   2.744514   1.086264
     7  C    3.783954   2.282764   2.260641   3.325247   1.388719
     8  H    4.782400   3.327794   3.319994   4.361214   2.226246
     9  C    2.625873   1.403985   2.223181   3.254431   2.261014
    10  C    3.058053   2.470148   3.573264   4.534115   3.660257
    11  N    1.548587   2.442632   3.723883   4.203558   4.622269
    12  C    2.558464   3.731048   4.959543   5.299200   5.932119
    13  H    2.799380   4.205808   5.295450   5.419488   6.434689
    14  C    3.747650   4.640400   5.944126   6.449209   6.703268
    15  H    4.731499   5.708674   7.002270   7.461553   7.784645
    16  C    3.780995   4.223292   5.536827   6.243899   6.030756
    17  H    4.781064   5.036322   6.316483   7.111677   6.624835
    18  C    2.632571   2.821998   4.129306   4.883071   4.626827
    19  F    1.390516   2.415720   2.960753   2.775874   4.298039
    20  F    1.395375   2.420458   3.204005   3.280975   4.378846
    21  C    4.521407   3.806744   4.725907   5.764807   4.432086
    22  C    5.306195   4.399912   5.092136   6.154771   4.531507
    23  H    5.034020   4.053708   4.604072   5.625173   4.030169
    24  C    6.681006   5.766917   6.396664   7.470503   5.688647
    25  H    7.393651   6.413300   6.913879   7.966936   6.099089
    26  C    7.329190   6.521186   7.249151   8.329908   6.592058
    27  C    6.792540   6.143010   7.001678   8.052364   6.525138
    28  H    7.573469   7.006372   7.886145   8.916687   7.438048
    29  C    5.445770   4.883922   5.836609   6.851677   5.549160
    30  H    5.299909   4.937168   5.959180   6.899259   5.851488
    31  H    8.418455   7.592904   8.278034   9.362988   7.546596
                    6          7          8          9         10
     6  H    0.000000
     7  C    2.223843   0.000000
     8  H    2.716030   1.085570   0.000000
     9  C    3.320613   1.423944   2.232764   0.000000
    10  C    4.692071   2.587436   2.981220   1.425093   0.000000
    11  N    5.687810   4.199257   4.999548   2.806284   2.463291
    12  C    6.986074   5.518172   6.280867   4.121427   3.570878
    13  H    7.442927   6.223501   7.076090   4.871838   4.530302
    14  C    7.780217   6.022872   6.595660   4.631320   3.664808
    15  H    8.859423   7.097315   7.639920   5.712412   4.698170
    16  C    7.101459   5.130965   5.542475   3.816092   2.596885
    17  H    7.666804   5.564346   5.782020   4.380695   3.003844
    18  C    5.704701   3.803394   4.349756   2.434102   1.423846
    19  F    5.141452   4.621749   5.656922   3.657102   4.196318
    20  F    5.293719   4.476874   5.455124   3.408375   3.800481
    21  C    5.325954   3.103384   2.962749   2.510599   1.468729
    22  C    5.270629   3.193530   2.761124   3.061936   2.492385
    23  H    4.724219   2.846180   2.548595   2.854478   2.697408
    24  C    6.299482   4.348088   3.666169   4.401631   3.772687
    25  H    6.586789   4.850504   4.095162   5.089939   4.641758
    26  C    7.233074   5.210700   4.522275   5.143566   4.281625
    27  C    7.273101   5.154869   4.642382   4.838789   3.782123
    28  H    8.174657   6.093240   5.581233   5.751533   4.655496
    29  C    6.406998   4.230613   3.971408   3.664717   2.506641
    30  H    6.750985   4.647842   4.555257   3.910646   2.725066
    31  H    8.116072   6.181120   5.407430   6.207061   5.371986
                   11         12         13         14         15
    11  N    0.000000
    12  C    1.335441   0.000000
    13  H    2.108487   1.087908   0.000000
    14  C    2.255581   1.420610   2.273970   0.000000
    15  H    3.294054   2.233194   2.743822   1.086272   0.000000
    16  C    2.283861   2.260633   3.324997   1.388839   2.223144
    17  H    3.330282   3.318096   4.358336   2.222106   2.708483
    18  C    1.406610   2.225139   3.256588   2.262285   3.321561
    19  F    2.418952   2.987696   2.803605   4.338565   5.191301
    20  F    2.416679   3.136996   3.204456   4.282946   5.174638
    21  C    3.818463   4.752208   5.787236   4.476813   5.376657
    22  C    4.869643   5.885158   6.883055   5.674818   6.567757
    23  H    4.887785   6.002535   6.915824   6.005302   6.955656
    24  C    6.146707   7.069820   8.105510   6.672302   7.462496
    25  H    6.996354   7.961961   8.971677   7.619219   8.415287
    26  C    6.557333   7.321605   8.398371   6.704560   7.369841
    27  C    5.829987   6.458658   7.539841   5.738166   6.343964
    28  H    6.497197   6.978875   8.048036   6.119953   6.586086
    29  C    4.461204   5.131479   6.203836   4.534851   5.256661
    30  H    4.152385   4.634878   5.680278   3.953711   4.599009
    31  H    7.633284   8.359464   9.441375   7.671635   8.270865
                   16         17         18         19         20
    16  C    0.000000
    17  H    1.084836   0.000000
    18  C    1.424681   2.236615   0.000000
    19  F    4.659339   5.707002   3.674394   0.000000
    20  F    4.401211   5.361199   3.392438   2.286774   0.000000
    21  C    3.154098   3.036072   2.531769   5.656848   5.162280
    22  C    4.369400   4.188807   3.694322   6.532397   5.708553
    23  H    4.816815   4.823674   3.931416   6.301240   5.245432
    24  C    5.306881   4.875839   4.878974   7.892338   7.078478
    25  H    6.276891   5.866316   5.792524   8.637160   7.661750
    26  C    5.318530   4.670518   5.188458   8.462351   7.875501
    27  C    4.384876   3.679616   4.444795   7.816998   7.499538
    28  H    4.849989   4.028544   5.134472   8.512929   8.349326
    29  C    3.181437   2.697044   3.095665   6.440830   6.222990
    30  H    2.730044   2.284495   2.888378   6.131774   6.216715
    31  H    6.296392   5.562794   6.254857   9.551077   8.943622
                   21         22         23         24         25
    21  C    0.000000
    22  C    1.406819   0.000000
    23  H    2.161535   1.091354   0.000000
    24  C    2.431630   1.391569   2.155785   0.000000
    25  H    3.415949   2.150514   2.476301   1.090543   0.000000
    26  C    2.812960   2.417367   3.406004   1.395895   2.160075
    27  C    2.430942   2.786725   3.877948   2.412337   3.402900
    28  H    3.415131   3.877197   4.968462   3.402819   4.307147
    29  C    1.406200   2.417536   3.406791   2.787945   3.878455
    30  H    2.162988   3.407550   4.309982   3.878111   4.968645
    31  H    3.903326   3.405619   4.306217   2.160662   2.491679
                   26         27         28         29         30
    26  C    0.000000
    27  C    1.395238   0.000000
    28  H    2.159244   1.090554   0.000000
    29  C    2.418047   1.392192   2.150690   0.000000
    30  H    3.404204   2.153644   2.472766   1.090689   0.000000
    31  H    1.090367   2.160130   2.490752   3.406231   4.303761
                   31
    31  H    0.000000
 Symmetry turned off by external request.
 Stoichiometry    C15H11BF2N2
 Framework group  C1[X(C15H11BF2N2)]
 Deg. of freedom    87
 Full point group                 C1      NOp   1
 Rotational constants (GHZ):           0.5797333           0.2799164           0.2047989
 Leave Link  202 at Mon Jan 31 13:48:24 2022, MaxMem= 49660559360 cpu:               0.3 elap:               0.0
 (Enter /lustre1/prg/gaussian/bin/G16_C01_Linda_AVX2/g16/l301.exe)
 Standard basis: CC-pVDZ (5D, 7F)
 Ernie: Thresh=  0.10000D-02 Tol=  0.10000D-05 Strict=F.
 Ernie:  40 primitive shells out of 495 were deleted.
   335 basis functions,   737 primitive gaussians,   355 cartesian basis functions
    69 alpha electrons       69 beta electrons
       nuclear repulsion energy      1466.6538474170 Hartrees.
 IExCor= 4336 DFT=T Ex+Corr=M062X ExCW=0 ScaHFX=  0.540000
 ScaDFX=  1.000000  1.000000  1.000000  1.000000 ScalE2=  1.000000  1.000000
 IRadAn=      5 IRanWt=     -1 IRanGd=            0 ICorTp=0 IEmpDi=  4
 NAtoms=   31 NActive=   31 NUniq=   31 SFac= 1.00D+00 NAtFMM=   60 NAOKFM=F Big=F
 Integral buffers will be    131072 words long.
 Regular integral format.
 Two-electron integral symmetry is turned off.
 ------------------------------------------------------------------------------
 Polarizable Continuum Model (PCM)
 =================================
 Model                : C-PCM.
 Atomic radii         : UFF (Universal Force Field).
 Polarization charges : Total charges.
 Charge compensation  : None.
 Solution method      : On-the-fly selection.
 Cavity type          : Scaled VdW (van der Waals Surface) (Alpha=1.100).
 Cavity algorithm     : GePol (No added spheres)
                        Default sphere list used, NSphG=   31.
                        Lebedev-Laikov grids with approx.  5.0 points / Ang**2.
                        Smoothing algorithm: York/Karplus (Gamma=1.0000).
                        Polarization charges: spherical gaussians, with
                                              point-specific exponents (IZeta= 3).
                        Self-potential: point-specific (ISelfS= 7).
                        Self-field    : sphere-specific E.n sum rule (ISelfD= 2).
 1st derivatives      : Analytical E(r).r(x)/FMM algorithm (CHGder, D1EAlg=3).
                        Cavity 1st derivative terms included.
 Solvent              : DiMethylSulfoxide, Eps=  46.826000 Eps(inf)=   2.007889
 ------------------------------------------------------------------------------
 GePol: Number of generator spheres                  =      31
 GePol: Total number of spheres                      =      31
 GePol: Number of exposed spheres                    =      31 (100.00%)
 GePol: Number of points                             =    2470
 GePol: Average weight of points                     =       0.13
 GePol: Minimum weight of points                     =   0.30D-11
 GePol: Maximum weight of points                     =    0.20577
 GePol: Number of points with low weight             =     159
 GePol: Fraction of low-weight points (<1% of avg)   =       6.44%
 GePol: Cavity surface area                          =    314.156 Ang**2
 GePol: Cavity volume                                =    345.847 Ang**3
 Leave Link  301 at Mon Jan 31 13:48:24 2022, MaxMem= 49660559360 cpu:               3.4 elap:               0.1
Warning: Permanently added 'fizika342.fizika.bullx' (ECDSA) to the list of known hosts.
 (Enter /lustre1/prg/gaussian/bin/G16_C01_Linda_AVX2/g16/linda-exe/l302.exel)
 NPDir=0 NMtPBC=     1 NCelOv=     1 NCel=       1 NClECP=     1 NCelD=      1
         NCelK=      1 NCelE2=     1 NClLst=     1 CellRange=     0.0.
 One-electron integrals computed using PRISM.
 NBasis=   335 RedAO= T EigKep=  2.82D-04  NBF=   335
 NBsUse=   335 1.00D-06 EigRej= -1.00D+00 NBFU=   335
 Precomputing XC quadrature grid using
 IXCGrd= 4 IRadAn=           5 IRanWt=          -1 IRanGd=           0 AccXCQ= 0.00D+00.
 Generated NRdTot=       0 NPtTot=           0 NUsed=           0 NTot=          32
 NSgBfM=   354   354   354   354   354 MxSgAt=    31 MxSgA2=    31.
 Leave Link  302 at Mon Jan 31 13:48:26 2022, MaxMem= 49660559360 cpu:              18.2 elap:               0.6
 (Enter /lustre1/prg/gaussian/bin/G16_C01_Linda_AVX2/g16/l303.exe)
 DipDrv:  MaxL=1.
 Leave Link  303 at Mon Jan 31 13:48:26 2022, MaxMem= 49660559360 cpu:               3.0 elap:               0.1
 (Enter /lustre1/prg/gaussian/bin/G16_C01_Linda_AVX2/g16/l308.exe)
 Leave Link  308 at Mon Jan 31 13:48:26 2022, MaxMem= 49660559360 cpu:               3.3 elap:               0.1
 (Enter /lustre1/prg/gaussian/bin/G16_C01_Linda_AVX2/g16/linda-exe/l401.exel)
 ExpMin= 9.54D-02 ExpMax= 1.47D+04 ExpMxC= 5.03D+02 IAcc=3 IRadAn=         5 AccDes= 0.00D+00
 Harris functional with IExCor= 1009 and IRadAn=       5 diagonalized for initial guess.
 HarFok:  IExCor= 1009 AccDes= 0.00D+00 IRadAn=         5 IDoV= 1 UseB2=F ITyADJ=14
 ICtDFT=  3500011 ScaDFX=  1.000000  1.000000  1.000000  1.000000
 FoFCou: FMM=F IPFlag=           0 FMFlag=      100000 FMFlg1=           0
         NFxFlg=           0 DoJE=T BraDBF=F KetDBF=T FulRan=T
         wScrn=  0.000000 ICntrl=       500 IOpCl=  0 I1Cent=   200000004 NGrid=           0
         NMat0=    1 NMatS0=      1 NMatT0=    0 NMatD0=    1 NMtDS0=    0 NMtDT0=    0
 Symmetry not used in FoFCou.
 Harris En= -911.573640148926    
 JPrj=0 DoOrth=F DoCkMO=F.
 Leave Link  401 at Mon Jan 31 13:48:29 2022, MaxMem= 49660559360 cpu:              42.3 elap:               1.4
 (Enter /lustre1/prg/gaussian/bin/G16_C01_Linda_AVX2/g16/linda-exe/l502.exel)
 Two-electron integral symmetry not used.
 Closed shell SCF:
 Using DIIS extrapolation, IDIIS=  1040.
 NGot= 49660559360 LenX= 49660292335 LenY= 49660165869
 Requested convergence on RMS density matrix=1.00D-08 within 128 cycles.
 Requested convergence on MAX density matrix=1.00D-06.
 Requested convergence on             energy=1.00D-06.
 No special actions if energy rises.
 Fock matrices will be formed incrementally for  20 cycles.

 Cycle   1  Pass 1  IDiag  1:
 FoFJK:  IHMeth= 1 ICntrl=       0 DoSepK=F KAlg= 0 I1Cent=           0 FoldK=F
 IRaf= 870000000 NMat=       1 IRICut=       1 DoRegI=T DoRafI=F ISym2E= 0 IDoP0=0 IntGTp=1.
 FoFCou: FMM=F IPFlag=           0 FMFlag=      100000 FMFlg1=           0
         NFxFlg=           0 DoJE=F BraDBF=F KetDBF=F FulRan=T
         wScrn=  0.000000 ICntrl=         0 IOpCl=  0 I1Cent=           0 NGrid=           0
         NMat0=    1 NMatS0=      1 NMatT0=    0 NMatD0=    1 NMtDS0=    0 NMtDT0=    0
 Symmetry not used in FoFCou.
 Inv3:  Mode=1 IEnd=    18302700.
 Iteration    1 A*A^-1 deviation from unit magnitude is 3.11D-15 for    882.
 Iteration    1 A*A^-1 deviation from orthogonality  is 1.67D-15 for   2402    253.
 Iteration    1 A^-1*A deviation from unit magnitude is 2.89D-15 for    882.
 Iteration    1 A^-1*A deviation from orthogonality  is 2.47D-15 for   1635    998.
 E= -911.878297980663    
 DIIS: error= 2.00D-02 at cycle   1 NSaved=   1.
 NSaved= 1 IEnMin= 1 EnMin= -911.878297980663     IErMin= 1 ErrMin= 2.00D-02
 ErrMax= 2.00D-02  0.00D+00 EMaxC= 1.00D-01 BMatC= 3.29D-01 BMatP= 3.29D-01
 IDIUse=3 WtCom= 8.00D-01 WtEn= 2.00D-01
 Coeff-Com:  0.100D+01
 Coeff-En:   0.100D+01
 Coeff:      0.100D+01
 Gap=     0.174 Goal=   None    Shift=    0.000
 GapD=    0.174 DampG=1.000 DampE=0.500 DampFc=0.5000 IDamp=-1.
 Damping current iteration by 5.00D-01
 RMSDP=3.53D-03 MaxDP=9.83D-02              OVMax= 1.49D-01

 Cycle   2  Pass 1  IDiag  1:
 RMSU=  1.70D-03    CP:  9.75D-01
 E= -912.036508054981     Delta-E=       -0.158210074318 Rises=F Damp=T
 DIIS: error= 5.94D-03 at cycle   2 NSaved=   2.
 NSaved= 2 IEnMin= 2 EnMin= -912.036508054981     IErMin= 2 ErrMin= 5.94D-03
 ErrMax= 5.94D-03  0.00D+00 EMaxC= 1.00D-01 BMatC= 2.86D-02 BMatP= 3.29D-01
 IDIUse=3 WtCom= 9.41D-01 WtEn= 5.94D-02
 Coeff-Com: -0.101D+00 0.110D+01
 Coeff-En:   0.000D+00 0.100D+01
 Coeff:     -0.952D-01 0.110D+01
 Gap=     0.183 Goal=   None    Shift=    0.000
 RMSDP=1.23D-03 MaxDP=5.62D-02 DE=-1.58D-01 OVMax= 9.13D-02

 Cycle   3  Pass 1  IDiag  1:
 RMSU=  1.00D-03    CP:  9.56D-01  1.36D+00
 E= -912.178471996802     Delta-E=       -0.141963941821 Rises=F Damp=F
 DIIS: error= 5.04D-03 at cycle   3 NSaved=   3.
 NSaved= 3 IEnMin= 3 EnMin= -912.178471996802     IErMin= 3 ErrMin= 5.04D-03
 ErrMax= 5.04D-03  0.00D+00 EMaxC= 1.00D-01 BMatC= 1.33D-02 BMatP= 2.86D-02
 IDIUse=3 WtCom= 9.50D-01 WtEn= 5.04D-02
 Coeff-Com: -0.110D+00 0.468D+00 0.641D+00
 Coeff-En:   0.000D+00 0.000D+00 0.100D+01
 Coeff:     -0.104D+00 0.444D+00 0.660D+00
 Gap=     0.173 Goal=   None    Shift=    0.000
 RMSDP=4.37D-04 MaxDP=2.10D-02 DE=-1.42D-01 OVMax= 4.56D-02

 Cycle   4  Pass 1  IDiag  1:
 RMSU=  3.16D-04    CP:  9.58D-01  1.40D+00  7.08D-01
 E= -912.189012909847     Delta-E=       -0.010540913045 Rises=F Damp=F
 DIIS: error= 2.95D-03 at cycle   4 NSaved=   4.
 NSaved= 4 IEnMin= 4 EnMin= -912.189012909847     IErMin= 4 ErrMin= 2.95D-03
 ErrMax= 2.95D-03  0.00D+00 EMaxC= 1.00D-01 BMatC= 2.47D-03 BMatP= 1.33D-02
 IDIUse=3 WtCom= 9.70D-01 WtEn= 2.95D-02
 Coeff-Com: -0.362D-01 0.955D-01 0.340D+00 0.600D+00
 Coeff-En:   0.000D+00 0.000D+00 0.146D+00 0.854D+00
 Coeff:     -0.351D-01 0.927D-01 0.335D+00 0.608D+00
 Gap=     0.175 Goal=   None    Shift=    0.000
 RMSDP=1.49D-04 MaxDP=7.84D-03 DE=-1.05D-02 OVMax= 1.81D-02

 Cycle   5  Pass 1  IDiag  1:
 RMSU=  6.37D-05    CP:  9.57D-01  1.40D+00  7.90D-01  6.65D-01
 E= -912.191448067974     Delta-E=       -0.002435158126 Rises=F Damp=F
 DIIS: error= 3.06D-04 at cycle   5 NSaved=   5.
 NSaved= 5 IEnMin= 5 EnMin= -912.191448067974     IErMin= 5 ErrMin= 3.06D-04
 ErrMax= 3.06D-04  0.00D+00 EMaxC= 1.00D-01 BMatC= 8.66D-05 BMatP= 2.47D-03
 IDIUse=3 WtCom= 9.97D-01 WtEn= 3.06D-03
 Coeff-Com: -0.835D-02 0.130D-01 0.100D+00 0.252D+00 0.643D+00
 Coeff-En:   0.000D+00 0.000D+00 0.000D+00 0.000D+00 0.100D+01
 Coeff:     -0.832D-02 0.130D-01 0.999D-01 0.251D+00 0.644D+00
 Gap=     0.175 Goal=   None    Shift=    0.000
 RMSDP=2.73D-05 MaxDP=1.78D-03 DE=-2.44D-03 OVMax= 2.85D-03

 Cycle   6  Pass 1  IDiag  1:
 RMSU=  1.84D-05    CP:  9.57D-01  1.41D+00  7.94D-01  7.00D-01  7.55D-01
 E= -912.191526308700     Delta-E=       -0.000078240726 Rises=F Damp=F
 DIIS: error= 6.68D-05 at cycle   6 NSaved=   6.
 NSaved= 6 IEnMin= 6 EnMin= -912.191526308700     IErMin= 6 ErrMin= 6.68D-05
 ErrMax= 6.68D-05  0.00D+00 EMaxC= 1.00D-01 BMatC= 4.76D-06 BMatP= 8.66D-05
 IDIUse=1 WtCom= 1.00D+00 WtEn= 0.00D+00
 Coeff-Com: -0.131D-02-0.136D-04 0.193D-01 0.625D-01 0.251D+00 0.668D+00
 Coeff:     -0.131D-02-0.136D-04 0.193D-01 0.625D-01 0.251D+00 0.668D+00
 Gap=     0.175 Goal=   None    Shift=    0.000
 RMSDP=6.91D-06 MaxDP=2.91D-04 DE=-7.82D-05 OVMax= 5.45D-04

 Cycle   7  Pass 1  IDiag  1:
 RMSU=  5.82D-06    CP:  9.57D-01  1.41D+00  7.95D-01  7.01D-01  8.01D-01
                    CP:  8.90D-01
 E= -912.191530973176     Delta-E=       -0.000004664476 Rises=F Damp=F
 DIIS: error= 2.69D-05 at cycle   7 NSaved=   7.
 NSaved= 7 IEnMin= 7 EnMin= -912.191530973176     IErMin= 7 ErrMin= 2.69D-05
 ErrMax= 2.69D-05  0.00D+00 EMaxC= 1.00D-01 BMatC= 2.89D-07 BMatP= 4.76D-06
 IDIUse=1 WtCom= 1.00D+00 WtEn= 0.00D+00
 Coeff-Com:  0.520D-03-0.144D-02-0.527D-02-0.905D-02 0.413D-02 0.153D+00
 Coeff-Com:  0.858D+00
 Coeff:      0.520D-03-0.144D-02-0.527D-02-0.905D-02 0.413D-02 0.153D+00
 Coeff:      0.858D+00
 Gap=     0.175 Goal=   None    Shift=    0.000
 RMSDP=3.14D-06 MaxDP=1.17D-04 DE=-4.66D-06 OVMax= 4.24D-04

 Cycle   8  Pass 1  IDiag  1:
 RMSU=  2.18D-06    CP:  9.57D-01  1.41D+00  7.95D-01  7.05D-01  8.10D-01
                    CP:  9.91D-01  1.02D+00
 E= -912.191531320275     Delta-E=       -0.000000347099 Rises=F Damp=F
 DIIS: error= 2.36D-05 at cycle   8 NSaved=   8.
 NSaved= 8 IEnMin= 8 EnMin= -912.191531320275     IErMin= 8 ErrMin= 2.36D-05
 ErrMax= 2.36D-05  0.00D+00 EMaxC= 1.00D-01 BMatC= 1.39D-07 BMatP= 2.89D-07
 IDIUse=1 WtCom= 1.00D+00 WtEn= 0.00D+00
 Coeff-Com:  0.478D-03-0.799D-03-0.546D-02-0.134D-01-0.319D-01-0.167D-01
 Coeff-Com:  0.472D+00 0.595D+00
 Coeff:      0.478D-03-0.799D-03-0.546D-02-0.134D-01-0.319D-01-0.167D-01
 Coeff:      0.472D+00 0.595D+00
 Gap=     0.175 Goal=   None    Shift=    0.000
 RMSDP=1.30D-06 MaxDP=7.79D-05 DE=-3.47D-07 OVMax= 1.56D-04

 Cycle   9  Pass 1  IDiag  1:
 RMSU=  7.68D-07    CP:  9.57D-01  1.41D+00  7.95D-01  7.05D-01  8.17D-01
                    CP:  1.01D+00  1.11D+00  6.95D-01
 E= -912.191531476897     Delta-E=       -0.000000156622 Rises=F Damp=F
 DIIS: error= 2.36D-06 at cycle   9 NSaved=   9.
 NSaved= 9 IEnMin= 9 EnMin= -912.191531476897     IErMin= 9 ErrMin= 2.36D-06
 ErrMax= 2.36D-06  0.00D+00 EMaxC= 1.00D-01 BMatC= 4.20D-09 BMatP= 1.39D-07
 IDIUse=1 WtCom= 1.00D+00 WtEn= 0.00D+00
 Coeff-Com:  0.975D-04-0.113D-03-0.115D-02-0.314D-02-0.953D-02-0.179D-01
 Coeff-Com:  0.723D-01 0.175D+00 0.784D+00
 Coeff:      0.975D-04-0.113D-03-0.115D-02-0.314D-02-0.953D-02-0.179D-01
 Coeff:      0.723D-01 0.175D+00 0.784D+00
 Gap=     0.175 Goal=   None    Shift=    0.000
 RMSDP=3.34D-07 MaxDP=1.21D-05 DE=-1.57D-07 OVMax= 3.75D-05

 Cycle  10  Pass 1  IDiag  1:
 RMSU=  2.30D-07    CP:  9.57D-01  1.41D+00  7.95D-01  7.05D-01  8.17D-01
                    CP:  1.01D+00  1.13D+00  7.71D-01  9.68D-01
 E= -912.191531483045     Delta-E=       -0.000000006148 Rises=F Damp=F
 DIIS: error= 1.25D-06 at cycle  10 NSaved=  10.
 NSaved=10 IEnMin=10 EnMin= -912.191531483045     IErMin=10 ErrMin= 1.25D-06
 ErrMax= 1.25D-06  0.00D+00 EMaxC= 1.00D-01 BMatC= 8.60D-10 BMatP= 4.20D-09
 IDIUse=1 WtCom= 1.00D+00 WtEn= 0.00D+00
 Coeff-Com: -0.182D-04 0.491D-04 0.195D-03 0.377D-03-0.652D-04-0.583D-02
 Coeff-Com: -0.288D-01-0.989D-02 0.311D+00 0.733D+00
 Coeff:     -0.182D-04 0.491D-04 0.195D-03 0.377D-03-0.652D-04-0.583D-02
 Coeff:     -0.288D-01-0.989D-02 0.311D+00 0.733D+00
 Gap=     0.175 Goal=   None    Shift=    0.000
 RMSDP=1.25D-07 MaxDP=6.01D-06 DE=-6.15D-09 OVMax= 1.51D-05

 Cycle  11  Pass 1  IDiag  1:
 RMSU=  8.38D-08    CP:  9.57D-01  1.41D+00  7.95D-01  7.05D-01  8.18D-01
                    CP:  1.01D+00  1.14D+00  7.86D-01  1.06D+00  9.23D-01
 E= -912.191531484139     Delta-E=       -0.000000001095 Rises=F Damp=F
 DIIS: error= 3.73D-07 at cycle  11 NSaved=  11.
 NSaved=11 IEnMin=11 EnMin= -912.191531484139     IErMin=11 ErrMin= 3.73D-07
 ErrMax= 3.73D-07  0.00D+00 EMaxC= 1.00D-01 BMatC= 1.03D-10 BMatP= 8.60D-10
 IDIUse=1 WtCom= 1.00D+00 WtEn= 0.00D+00
 Coeff-Com: -0.216D-04 0.366D-04 0.241D-03 0.614D-03 0.132D-02 0.283D-04
 Coeff-Com: -0.220D-01-0.318D-01 0.252D-01 0.298D+00 0.728D+00
 Coeff:     -0.216D-04 0.366D-04 0.241D-03 0.614D-03 0.132D-02 0.283D-04
 Coeff:     -0.220D-01-0.318D-01 0.252D-01 0.298D+00 0.728D+00
 Gap=     0.175 Goal=   None    Shift=    0.000
 RMSDP=4.55D-08 MaxDP=1.66D-06 DE=-1.09D-09 OVMax= 4.58D-06

 Cycle  12  Pass 1  IDiag  1:
 RMSU=  2.71D-08    CP:  9.57D-01  1.41D+00  7.95D-01  7.05D-01  8.18D-01
                    CP:  1.01D+00  1.14D+00  7.87D-01  1.09D+00  1.02D+00
                    CP:  9.07D-01
 E= -912.191531484264     Delta-E=       -0.000000000125 Rises=F Damp=F
 DIIS: error= 7.77D-08 at cycle  12 NSaved=  12.
 NSaved=12 IEnMin=12 EnMin= -912.191531484264     IErMin=12 ErrMin= 7.77D-08
 ErrMax= 7.77D-08  0.00D+00 EMaxC= 1.00D-01 BMatC= 3.85D-12 BMatP= 1.03D-10
 IDIUse=1 WtCom= 1.00D+00 WtEn= 0.00D+00
 Coeff-Com: -0.416D-05 0.619D-05 0.445D-04 0.124D-03 0.310D-03 0.360D-03
 Coeff-Com: -0.291D-02-0.734D-02-0.829D-02 0.302D-01 0.174D+00 0.813D+00
 Coeff:     -0.416D-05 0.619D-05 0.445D-04 0.124D-03 0.310D-03 0.360D-03
 Coeff:     -0.291D-02-0.734D-02-0.829D-02 0.302D-01 0.174D+00 0.813D+00
 Gap=     0.175 Goal=   None    Shift=    0.000
 RMSDP=1.06D-08 MaxDP=3.68D-07 DE=-1.25D-10 OVMax= 1.59D-06

 Cycle  13  Pass 1  IDiag  1:
 RMSU=  8.19D-09    CP:  9.57D-01  1.41D+00  7.95D-01  7.05D-01  8.18D-01
                    CP:  1.01D+00  1.14D+00  7.87D-01  1.10D+00  1.04D+00
                    CP:  9.65D-01  1.04D+00
 E= -912.191531484279     Delta-E=       -0.000000000015 Rises=F Damp=F
 DIIS: error= 3.75D-08 at cycle  13 NSaved=  13.
 NSaved=13 IEnMin=13 EnMin= -912.191531484279     IErMin=13 ErrMin= 3.75D-08
 ErrMax= 3.75D-08  0.00D+00 EMaxC= 1.00D-01 BMatC= 9.57D-13 BMatP= 3.85D-12
 IDIUse=1 WtCom= 1.00D+00 WtEn= 0.00D+00
 Coeff-Com:  0.648D-06-0.144D-05-0.870D-05-0.178D-04-0.154D-04 0.142D-03
 Coeff-Com:  0.123D-02 0.436D-04-0.650D-02-0.245D-01-0.214D-01 0.322D+00
 Coeff-Com:  0.729D+00
 Coeff:      0.648D-06-0.144D-05-0.870D-05-0.178D-04-0.154D-04 0.142D-03
 Coeff:      0.123D-02 0.436D-04-0.650D-02-0.245D-01-0.214D-01 0.322D+00
 Coeff:      0.729D+00
 Gap=     0.175 Goal=   None    Shift=    0.000
 RMSDP=4.71D-09 MaxDP=1.36D-07 DE=-1.48D-11 OVMax= 5.73D-07

 Error on total polarization charges =  0.01118
 SCF Done:  E(RM062X) =  -912.191531484     A.U. after   13 cycles
            NFock= 13  Conv=0.47D-08     -V/T= 2.0063
 KE= 9.064632684588D+02 PE=-5.063169930966D+03 EE= 1.777861283606D+03
 Leave Link  502 at Mon Jan 31 13:49:08 2022, MaxMem= 49660559360 cpu:            1182.6 elap:              38.1
 (Enter /lustre1/prg/gaussian/bin/G16_C01_Linda_AVX2/g16/l801.exe)
 DoSCS=F DFT=T ScalE2(SS,OS)=  1.000000  1.000000
 ExpMin= 9.54D-02 ExpMax= 1.47D+04 ExpMxC= 5.03D+02 IAcc=3 IRadAn=         5 AccDes= 0.00D+00
 HarFok:  IExCor=  205 AccDes= 0.00D+00 IRadAn=         5 IDoV=-2 UseB2=F ITyADJ=14
 ICtDFT= 12500011 ScaDFX=  1.000000  1.000000  1.000000  1.000000
 Largest valence mixing into a core orbital is  7.98D-05
 Largest core mixing into a valence orbital is  4.85D-05
 Range of M.O.s used for correlation:    21   335
 NBasis=   335 NAE=    69 NBE=    69 NFC=    20 NFV=     0
 NROrb=    315 NOA=    49 NOB=    49 NVA=   266 NVB=   266

 **** Warning!!: The largest alpha MO coefficient is  0.12695543D+02

 Leave Link  801 at Mon Jan 31 13:49:08 2022, MaxMem= 49660559360 cpu:               4.2 elap:               0.1
 (Enter /lustre1/prg/gaussian/bin/G16_C01_Linda_AVX2/g16/linda-exe/l914.exel)
 RHF ground state
 Keep R1, R2, and R3 ints in memory in canonical form, NReq=5189770173.
 FoFCou: FMM=F IPFlag=           0 FMFlag=           0 FMFlg1=           0
         NFxFlg=           0 DoJE=F BraDBF=F KetDBF=F FulRan=T
         wScrn=  0.000000 ICntrl=       600 IOpCl=  0 I1Cent=           0 NGrid=           0
         NMat0=    1 NMatS0=  56280 NMatT0=    0 NMatD0=    1 NMtDS0=    0 NMtDT0=    0
 Symmetry not used in FoFCou.
 Two-electron integral symmetry not used.
 MDV= 49660559360 DFT=T DoStab=F Mixed=T DoRPA=T DoScal=F NonHer=T
 NEqPCM:  Using equilibrium solvation (IEInf=0, Eps=  46.8260, EpsInf=   2.0079)
 Making orbital integer symmetry assigments:
    24 initial guesses have been made.
 Convergence on wavefunction:    0.000001000000000
 Davidson Disk Diagonalization:  ConvIn= 1.00D-06 SkipCon=T Conv= 1.00D-06.
 Max sub-space:  2000 roots to seek:    24 dimension of matrix:        26068
 Iteration     1 Dimension    24 NMult     0 NNew     24
 CISAX will form    24 AO SS matrices at one time.
 NMat=    24 NSing=    24 JSym2X= 0.
 Excitation Energies [eV] at current iteration:
 Root      1 :     3.166162686234965
 Root      2 :     4.075317854744768
 Root      3 :     4.284779968033918
 Root      4 :     4.410768731945744
 Root      5 :     4.596266528600655
 Root      6 :     5.742421649789464
 Root      7 :     5.902924583239203
 Root      8 :     5.934304628863519
 Root      9 :     6.066245456598332
 Root     10 :     6.295066544472439
 Root     11 :     6.642004769449643
 Root     12 :     6.780950278394329
 Root     13 :     7.008809989413201
 Root     14 :     7.162196204325182
 Root     15 :     7.305794025035302
 Root     16 :     7.400283000875667
 Root     17 :     7.445486305422265
 Root     18 :     7.471002049373680
 Root     19 :     7.596157666680248
 Root     20 :     7.627955913350889
 Root     21 :     7.711562856302478
 Root     22 :     7.806259101551749
 Root     23 :     8.061672932161130
 Root     24 :     8.260228181908372
 Iteration     2 Dimension    36 NMult    24 NNew     12
 CISAX will form    12 AO SS matrices at one time.
 NMat=    12 NSing=    12 JSym2X= 0.
 Root      1 not converged, maximum delta is    0.053934139523482
 Root      2 not converged, maximum delta is    0.055299886884789
 Root      3 not converged, maximum delta is    0.198462088663599
 New state      4 was old state      5
 Root      4 not converged, maximum delta is    0.162827060813468
 New state      5 was old state      4
 Root      5 not converged, maximum delta is    0.183472212303649
 Root      6 not converged, maximum delta is    0.026854479313346
 Excitation Energies [eV] at current iteration:
 Root      1 :     2.635952142454469   Change is   -0.530210543780497
 Root      2 :     3.822798596541036   Change is   -0.252519258203733
 Root      3 :     3.928592879951945   Change is   -0.356187088081973
 Root      4 :     4.210090021595626   Change is   -0.386176507005029
 Root      5 :     4.300672522765945   Change is   -0.110096209179799
 Root      6 :     5.632817146163799   Change is   -0.109604503625665
 Iteration     3 Dimension    48 NMult    36 NNew     12
 CISAX will form    12 AO SS matrices at one time.
 NMat=    12 NSing=    12 JSym2X= 0.
 Root      1 not converged, maximum delta is    0.015831218845304
 Root      2 not converged, maximum delta is    0.012079166377033
 Root      3 not converged, maximum delta is    0.011483593770709
 Root      4 not converged, maximum delta is    0.011329997724346
 Root      5 not converged, maximum delta is    0.014305312506227
 Root      6 not converged, maximum delta is    0.015218141612957
 Excitation Energies [eV] at current iteration:
 Root      1 :     2.610763863130426   Change is   -0.025188279324043
 Root      2 :     3.808518754151214   Change is   -0.014279842389822
 Root      3 :     3.916436290755807   Change is   -0.012156589196139
 Root      4 :     4.198090565571069   Change is   -0.011999456024557
 Root      5 :     4.292679916452863   Change is   -0.007992606313082
 Root      6 :     5.625057656563095   Change is   -0.007759489600704
 Iteration     4 Dimension    60 NMult    48 NNew     12
 CISAX will form    12 AO SS matrices at one time.
 NMat=    12 NSing=    12 JSym2X= 0.
 Root      1 not converged, maximum delta is    0.002824598257477
 Root      2 not converged, maximum delta is    0.006589071882104
 Root      3 not converged, maximum delta is    0.002913865952309
 Root      4 not converged, maximum delta is    0.003201018468118
 Root      5 not converged, maximum delta is    0.002434621399461
 Root      6 not converged, maximum delta is    0.018401995482444
 Excitation Energies [eV] at current iteration:
 Root      1 :     2.609683311193214   Change is   -0.001080551937212
 Root      2 :     3.807077721718692   Change is   -0.001441032432521
 Root      3 :     3.915591972736248   Change is   -0.000844318019558
 Root      4 :     4.196461452454054   Change is   -0.001629113117014
 Root      5 :     4.291941078279749   Change is   -0.000738838173113
 Root      6 :     5.623399503134599   Change is   -0.001658153428496
 Iteration     5 Dimension    72 NMult    60 NNew     12
 CISAX will form    12 AO SS matrices at one time.
 NMat=    12 NSing=    12 JSym2X= 0.
 Root      1 not converged, maximum delta is    0.000368433466153
 Root      2 not converged, maximum delta is    0.000359198443921
 Root      3 not converged, maximum delta is    0.000381238395768
 Root      4 not converged, maximum delta is    0.001566844519897
 Root      5 not converged, maximum delta is    0.000306476891438
 Root      6 not converged, maximum delta is    0.233000947548284
 Excitation Energies [eV] at current iteration:
 Root      1 :     2.609648215935600   Change is   -0.000035095257613
 Root      2 :     3.807005074252786   Change is   -0.000072647465906
 Root      3 :     3.915547772992388   Change is   -0.000044199743860
 Root      4 :     4.196329086739588   Change is   -0.000132365714466
 Root      5 :     4.291915873730957   Change is   -0.000025204548793
 Root      6 :     5.620591633649963   Change is   -0.002807869484636
 Iteration     6 Dimension    84 NMult    72 NNew     12
 CISAX will form    12 AO SS matrices at one time.
 NMat=    12 NSing=    12 JSym2X= 0.
 Root      1 not converged, maximum delta is    0.000047672246147
 Root      2 not converged, maximum delta is    0.000185460104740
 Root      3 not converged, maximum delta is    0.000063584151839
 Root      4 not converged, maximum delta is    0.000204005177383
 Root      5 not converged, maximum delta is    0.000075095888072
 Root      6 not converged, maximum delta is    0.553398408336046
 Excitation Energies [eV] at current iteration:
 Root      1 :     2.609646547520603   Change is   -0.000001668414997
 Root      2 :     3.806999830363282   Change is   -0.000005243889504
 Root      3 :     3.915546023297976   Change is   -0.000001749694412
 Root      4 :     4.196316741944858   Change is   -0.000012344794730
 Root      5 :     4.291914490512024   Change is   -0.000001383218933
 Root      6 :     5.572996780327239   Change is   -0.047594853322724
 Iteration     7 Dimension    96 NMult    84 NNew     12
 CISAX will form    12 AO SS matrices at one time.
 NMat=    12 NSing=    12 JSym2X= 0.
 Root      1 not converged, maximum delta is    0.000007674371435
 Root      2 not converged, maximum delta is    0.000022698396050
 Root      3 not converged, maximum delta is    0.000014756420312
 Root      4 not converged, maximum delta is    0.000039072840904
 Root      5 not converged, maximum delta is    0.000029905461474
 Root      6 not converged, maximum delta is    0.028922976786567
 Excitation Energies [eV] at current iteration:
 Root      1 :     2.609646441565112   Change is   -0.000000105955491
 Root      2 :     3.806999551124216   Change is   -0.000000279239066
 Root      3 :     3.915545964857191   Change is   -0.000000058440785
 Root      4 :     4.196315963722664   Change is   -0.000000778222194
 Root      5 :     4.291914394535958   Change is   -0.000000095976066
 Root      6 :     5.565443556648293   Change is   -0.007553223678946
 Iteration     8 Dimension   108 NMult    96 NNew     12
 CISAX will form    12 AO SS matrices at one time.
 NMat=    12 NSing=    12 JSym2X= 0.
 Root      1 not converged, maximum delta is    0.000002077183210
 Root      2 not converged, maximum delta is    0.000004722130859
 Root      3 not converged, maximum delta is    0.000004580397985
 Root      4 not converged, maximum delta is    0.000007904713901
 Root      5 not converged, maximum delta is    0.000004053393460
 Root      6 not converged, maximum delta is    0.006643393240303
 Excitation Energies [eV] at current iteration:
 Root      1 :     2.609646436707911   Change is   -0.000000004857201
 Root      2 :     3.806999541753962   Change is   -0.000000009370254
 Root      3 :     3.915545960690344   Change is   -0.000000004166846
 Root      4 :     4.196315926320355   Change is   -0.000000037402309
 Root      5 :     4.291914389703642   Change is   -0.000000004832317
 Root      6 :     5.564691915016239   Change is   -0.000751641632054
 Iteration     9 Dimension   120 NMult   108 NNew     12
 CISAX will form    12 AO SS matrices at one time.
 NMat=    12 NSing=    12 JSym2X= 0.
 Root      1 has converged.
 Root      2 has converged.
 Root      3 has converged.
 Root      4 not converged, maximum delta is    0.000001889017370
 Root      5 has converged.
 Root      6 not converged, maximum delta is    0.000818536434333
 Excitation Energies [eV] at current iteration:
 Root      1 :     2.609646436553680   Change is   -0.000000000154231
 Root      2 :     3.806999541431416   Change is   -0.000000000322546
 Root      3 :     3.915545960499288   Change is   -0.000000000191056
 Root      4 :     4.196315924833738   Change is   -0.000000001486617
 Root      5 :     4.291914389514534   Change is   -0.000000000189108
 Root      6 :     5.564632350315533   Change is   -0.000059564700706
 Iteration    10 Dimension   124 NMult   120 NNew      4
 CISAX will form     4 AO SS matrices at one time.
 NMat=     4 NSing=     4 JSym2X= 0.
 Root      1 has converged.
 Root      2 has converged.
 Root      3 has converged.
 Root      4 has converged.
 Root      5 has converged.
 Root      6 not converged, maximum delta is    0.000261123364438
 Excitation Energies [eV] at current iteration:
 Root      1 :     2.609646436553648   Change is   -0.000000000000032
 Root      2 :     3.806999541430854   Change is   -0.000000000000562
 Root      3 :     3.915545960498533   Change is   -0.000000000000755
 Root      4 :     4.196315924774712   Change is   -0.000000000059026
 Root      5 :     4.291914389511182   Change is   -0.000000000003352
 Root      6 :     5.564627145309831   Change is   -0.000005205005702
 Iteration    11 Dimension   126 NMult   124 NNew      2
 CISAX will form     2 AO SS matrices at one time.
 NMat=     2 NSing=     2 JSym2X= 0.
 Root      1 has converged.
 Root      2 has converged.
 Root      3 has converged.
 Root      4 has converged.
 Root      5 has converged.
 Root      6 not converged, maximum delta is    0.000069086777053
 Excitation Energies [eV] at current iteration:
 Root      1 :     2.609646436553617   Change is   -0.000000000000031
 Root      2 :     3.806999541430703   Change is   -0.000000000000151
 Root      3 :     3.915545960498469   Change is   -0.000000000000063
 Root      4 :     4.196315924774359   Change is   -0.000000000000353
 Root      5 :     4.291914389511144   Change is   -0.000000000000039
 Root      6 :     5.564626713045523   Change is   -0.000000432264308
 Iteration    12 Dimension   128 NMult   126 NNew      2
 CISAX will form     2 AO SS matrices at one time.
 NMat=     2 NSing=     2 JSym2X= 0.
 Root      1 has converged.
 Root      2 has converged.
 Root      3 has converged.
 Root      4 has converged.
 Root      5 has converged.
 Root      6 not converged, maximum delta is    0.000016526992059
 Excitation Energies [eV] at current iteration:
 Root      1 :     2.609646436553491   Change is   -0.000000000000126
 Root      2 :     3.806999541430638   Change is   -0.000000000000065
 Root      3 :     3.915545960498533   Change is    0.000000000000063
 Root      4 :     4.196315924774300   Change is   -0.000000000000059
 Root      5 :     4.291914389511125   Change is   -0.000000000000019
 Root      6 :     5.564626678621265   Change is   -0.000000034424258
 Iteration    13 Dimension   130 NMult   128 NNew      2
 CISAX will form     2 AO SS matrices at one time.
 NMat=     2 NSing=     2 JSym2X= 0.
 Root      1 has converged.
 Root      2 has converged.
 Root      3 has converged.
 Root      4 has converged.
 Root      5 has converged.
 Root      6 not converged, maximum delta is    0.000004045228401
 Excitation Energies [eV] at current iteration:
 Root      1 :     2.609646436553491   Change is    0.000000000000000
 Root      2 :     3.806999541430617   Change is   -0.000000000000021
 Root      3 :     3.915545960498386   Change is   -0.000000000000147
 Root      4 :     4.196315924774261   Change is   -0.000000000000039
 Root      5 :     4.291914389511067   Change is   -0.000000000000057
 Root      6 :     5.564626676136673   Change is   -0.000000002484591
 Iteration    14 Dimension   132 NMult   130 NNew      2
 CISAX will form     2 AO SS matrices at one time.
 NMat=     2 NSing=     2 JSym2X= 0.
 Root      1 has converged.
 Root      2 has converged.
 Root      3 has converged.
 Root      4 has converged.
 Root      5 has converged.
 Root      6 has converged.
 Excitation Energies [eV] at current iteration:
 Root      1 :     2.609646436553460   Change is   -0.000000000000031
 Root      2 :     3.806999541430595   Change is   -0.000000000000022
 Root      3 :     3.915545960498344   Change is   -0.000000000000042
 Root      4 :     4.196315924774222   Change is   -0.000000000000039
 Root      5 :     4.291914389511049   Change is   -0.000000000000019
 Root      6 :     5.564626675969337   Change is   -0.000000000167336
 Convergence achieved on expansion vectors.
 ***********************************************************************
 Excited states from <AA,BB:AA,BB> singles matrix:
 ***********************************************************************
 
 1PDM for each excited state written to RWF  633
 Ground to excited state transition densities written to RWF  633
 Ground to excited state transition electric dipole moments (Au):
       state          X           Y           Z        Dip. S.      Osc.
         1         1.8868     -0.0642      2.5453     10.0427      0.6421
         2        -1.8378     -0.0987      1.5191      5.6949      0.5312
         3        -0.8196      0.0062     -0.7406      1.2202      0.1171
         4        -0.6051      0.0011      0.4385      0.5584      0.0574
         5         0.1238     -0.3194      0.0051      0.1173      0.0123
         6         0.8404      0.1082     -0.6633      1.1579      0.1579
 Ground to excited state transition velocity dipole moments (Au):
       state          X           Y           Z        Dip. S.      Osc.
         1        -0.1845      0.0071     -0.2490      0.0961      0.6679
         2         0.2580      0.0137     -0.2141      0.1126      0.5365
         3         0.1209     -0.0012      0.1105      0.0268      0.1243
         4         0.0954      0.0008     -0.0700      0.0140      0.0605
         5        -0.0228      0.0544     -0.0039      0.0035      0.0148
         6        -0.1716     -0.0213      0.1363      0.0485      0.1581
 Ground to excited state transition magnetic dipole moments (Au):
       state          X           Y           Z
         1        -0.0224     -2.3480     -0.0383
         2         0.0367      0.0816     -0.0632
         3        -0.0236     -0.4573      0.0769
         4        -0.1025     -0.1397     -0.1892
         5        -0.4399     -0.5820     -0.5532
         6         0.0223      0.0450      0.1332
 Ground to excited state transition velocity quadrupole moments (Au):
       state          XX          YY          ZZ          XY          XZ          YZ
         1         0.7044      0.0026     -0.7394     -0.0627      0.2191     -0.0658
         2        -2.6005     -0.0664     -1.2507     -0.0285      2.7818      0.0855
         3        -1.1166     -0.0051      0.7636      0.0486      0.0085      0.0229
         4        -0.5146      0.0027     -0.4061     -0.0562      0.2995      0.0350
         5         0.3494     -0.0146     -0.2942     -0.4277      0.0908      0.3513
         6         1.0286      0.0714      0.1437      0.0456     -1.6740     -0.0952
 <0|del|b> * <b|rxdel|0> + <0|del|b> * <b|delr+rdel|0>
 Rotatory Strengths (R) in cgs (10**-40 erg-esu-cm/Gauss)
       state          XX          YY          ZZ    R(velocity)    E-M Angle
         1        25.8459     37.5690    -84.9671     -7.1841       90.23
         2       -43.9737     98.4785     67.4710     40.6586       48.99
         3        35.4557      7.4782    -12.4884     10.1485       85.33
         4        38.6111      6.6061    -29.7888      5.1428       83.64
         5       -73.5746      5.6124    -19.5408    -29.1677      111.13
         6       -21.3106     42.2689     25.2692     15.4091       64.76
 1/2[<0|r|b>*<b|rxdel|0> + (<0|rxdel|b>*<b|r|0>)*]
 Rotatory Strengths (R) in cgs (10**-40 erg-esu-cm/Gauss)
       state          XX          YY          ZZ     R(length)
         1        29.9297   -106.5767     68.9106     -2.5788
         2        47.7542      5.6987     67.9025     40.4518
         3       -13.6699      1.9978     40.2775      9.5351
         4       -43.8432      0.1051     58.6613      4.9744
         5        38.5130   -131.4463      2.0064    -30.3090
         6       -13.2551     -3.4460     62.4639     15.2543
  1/2[<0|del|b>*<b|r|0> + (<0|r|b>*<b|del|0>)*] (Au)
       state          X           Y           Z        Dip. S.   Osc.(frdel)
         1        -0.3482     -0.0005     -0.6337      0.9823      0.6549
         2        -0.4742     -0.0014     -0.3252      0.8007      0.5338
         3        -0.0991     -0.0000     -0.0818      0.1809      0.1206
         4        -0.0577      0.0000     -0.0307      0.0884      0.0590
         5        -0.0028     -0.0174     -0.0000      0.0202      0.0135
         6        -0.1442     -0.0023     -0.0904      0.2370      0.1580

 Excitation energies and oscillator strengths:
 
 Excited state symmetry could not be determined.
 Excited State   1:      Singlet-?Sym    2.6096 eV  475.10 nm  f=0.6421  <S**2>=0.000
      69 -> 70         0.70053
 This state for optimization and/or second-order correction.
 Total Energy, E(TD-HF/TD-DFT) =  -912.095628742    
 Copying the excited state density for this state as the 1-particle RhoCI density.
 
 Excited state symmetry could not be determined.
 Excited State   2:      Singlet-?Sym    3.8070 eV  325.67 nm  f=0.5312  <S**2>=0.000
      68 -> 70         0.69782
 
 Excited state symmetry could not be determined.
 Excited State   3:      Singlet-?Sym    3.9155 eV  316.65 nm  f=0.1171  <S**2>=0.000
      66 -> 70         0.36481
      67 -> 70         0.59834
 
 Excited state symmetry could not be determined.
 Excited State   4:      Singlet-?Sym    4.1963 eV  295.46 nm  f=0.0574  <S**2>=0.000
      65 -> 70         0.67879
      66 -> 70         0.15612
 
 Excited state symmetry could not be determined.
 Excited State   5:      Singlet-?Sym    4.2919 eV  288.88 nm  f=0.0123  <S**2>=0.000
      65 -> 70        -0.17971
      66 -> 70         0.57286
      67 -> 70        -0.34806
 
 Excited state symmetry could not be determined.
 Excited State   6:      Singlet-?Sym    5.5646 eV  222.81 nm  f=0.1579  <S**2>=0.000
      63 -> 70         0.11890
      64 -> 70         0.66852
 SavETr:  write IOETrn=   770 NScale= 10 NData=  16 NLR=1 NState=    6 LETran=     118.
 The selected state is a singlet.
 CISGrd: IGrad=2 NXY=2 DFT=T
 CISAX will form     1 AO SS matrices at one time.
 NMat=     1 NSing=     1 JSym2X= 0.
 GePol: Maximum number of non-zero 1st derivatives   =     214
 Leave Link  914 at Mon Jan 31 13:53:35 2022, MaxMem= 49660559360 cpu:            7381.5 elap:             265.4
 (Enter /lustre1/prg/gaussian/bin/G16_C01_Linda_AVX2/g16/linda-exe/l1002.exel)
 Minotr:  Closed shell wavefunction.
          Computing CIS/TDA/TD derivatives.
          Using Z-Vector for PSCF gradient.
          Skipping F1 and S1 gradient terms here.
          IDoAtm=1111111111111111111111111111111
 NEqPCM:  Using equilibrium solvation (IEInf=0, Eps=  46.8260, EpsInf=   2.0079)
          Frozen-core window.
          Direct CPHF calculation.
          Differentiating once with respect to electric field.
                with respect to dipole field.
          Differentiating once with respect to nuclear coordinates.
          Requested convergence is 1.0D-10 RMS, and 1.0D-09 maximum.
          NewPWx=F KeepS1=T KeepF1=T KeepIn=T MapXYZ=F SortEE=F KeepMc=T.
 Keep R1 ints in memory in canonical form, NReq=1620843042.
 FoFCou: FMM=F IPFlag=           0 FMFlag=           0 FMFlg1=           0
         NFxFlg=           0 DoJE=F BraDBF=F KetDBF=F FulRan=T
         wScrn=  0.000000 ICntrl=       600 IOpCl=  0 I1Cent=           0 NGrid=           0
         NMat0=    1 NMatS0=  56280 NMatT0=    0 NMatD0=    1 NMtDS0=    0 NMtDT0=    0
 Symmetry not used in FoFCou.
 Two-electron integral symmetry not used.
          MDV=   49660559360 using IRadAn=       5.
          Solving linear equations separately, MaxMat=       0.
          There are     1 degrees of freedom in the 1st order CPHF.  IDoFFX=0 NUNeed=     1.
 LinEq1:  Iter=  0 NonCon=     1 RMS=4.21D-03 Max=3.05D-01 NDo=     1
 AX will form     1 AO Fock derivatives at one time.
 LinEq1:  Iter=  1 NonCon=     1 RMS=1.71D-03 Max=1.49D-01 NDo=     1
 LinEq1:  Iter=  2 NonCon=     1 RMS=1.09D-03 Max=5.43D-02 NDo=     1
 LinEq1:  Iter=  3 NonCon=     1 RMS=2.48D-04 Max=6.77D-03 NDo=     1
 LinEq1:  Iter=  4 NonCon=     1 RMS=1.59D-04 Max=7.11D-03 NDo=     1
 LinEq1:  Iter=  5 NonCon=     1 RMS=7.31D-05 Max=2.82D-03 NDo=     1
 LinEq1:  Iter=  6 NonCon=     1 RMS=3.75D-05 Max=1.89D-03 NDo=     1
 LinEq1:  Iter=  7 NonCon=     1 RMS=2.00D-05 Max=8.23D-04 NDo=     1
 LinEq1:  Iter=  8 NonCon=     1 RMS=8.85D-06 Max=2.66D-04 NDo=     1
 LinEq1:  Iter=  9 NonCon=     1 RMS=3.29D-06 Max=9.53D-05 NDo=     1
 LinEq1:  Iter= 10 NonCon=     1 RMS=1.68D-06 Max=7.07D-05 NDo=     1
 LinEq1:  Iter= 11 NonCon=     1 RMS=6.32D-07 Max=4.86D-05 NDo=     1
 LinEq1:  Iter= 12 NonCon=     1 RMS=2.40D-07 Max=1.33D-05 NDo=     1
 LinEq1:  Iter= 13 NonCon=     1 RMS=1.45D-07 Max=5.83D-06 NDo=     1
 LinEq1:  Iter= 14 NonCon=     1 RMS=4.64D-08 Max=1.16D-06 NDo=     1
 LinEq1:  Iter= 15 NonCon=     1 RMS=1.77D-08 Max=4.32D-07 NDo=     1
 LinEq1:  Iter= 16 NonCon=     1 RMS=9.14D-09 Max=2.78D-07 NDo=     1
 LinEq1:  Iter= 17 NonCon=     1 RMS=3.69D-09 Max=8.18D-08 NDo=     1
 LinEq1:  Iter= 18 NonCon=     1 RMS=1.92D-09 Max=6.14D-08 NDo=     1
 LinEq1:  Iter= 19 NonCon=     1 RMS=5.57D-10 Max=1.41D-08 NDo=     1
 LinEq1:  Iter= 20 NonCon=     1 RMS=2.75D-10 Max=7.76D-09 NDo=     1
 LinEq1:  Iter= 21 NonCon=     1 RMS=1.25D-10 Max=3.89D-09 NDo=     1
 LinEq1:  Iter= 22 NonCon=     1 RMS=5.98D-11 Max=2.15D-09 NDo=     1
 LinEq1:  Iter= 23 NonCon=     1 RMS=2.94D-11 Max=1.09D-09 NDo=     1
 LinEq1:  Iter= 24 NonCon=     0 RMS=9.01D-12 Max=3.91D-10 NDo=     1
 Linear equations converged to 1.000D-10 1.000D-09 after    24 iterations.
 End of Minotr F.D. properties file   721 does not exist.
 End of Minotr F.D. properties file   722 does not exist.
 End of Minotr F.D. properties file   788 does not exist.
 Leave Link 1002 at Mon Jan 31 13:56:10 2022, MaxMem= 49660559360 cpu:            1998.0 elap:             152.0
 (Enter /lustre1/prg/gaussian/bin/G16_C01_Linda_AVX2/g16/l601.exe)
 Copying SCF densities to generalized density rwf, IOpCl= 0 IROHF=0.

 **********************************************************************

            Population analysis using the SCF Density.

 **********************************************************************

 Alpha  occ. eigenvalues --  -25.21778 -25.21359 -14.80372 -14.80371 -10.62767
 Alpha  occ. eigenvalues --  -10.60673 -10.60648 -10.60246 -10.60156 -10.58732
 Alpha  occ. eigenvalues --  -10.57378 -10.57363 -10.57293 -10.57220 -10.56931
 Alpha  occ. eigenvalues --  -10.56710 -10.56694 -10.55885 -10.55826  -7.13591
 Alpha  occ. eigenvalues --   -1.32123  -1.28795  -1.11295  -1.09272  -0.98696
 Alpha  occ. eigenvalues --   -0.93146  -0.89715  -0.88354  -0.85757  -0.85220
 Alpha  occ. eigenvalues --   -0.82480  -0.76591  -0.70516  -0.70253  -0.69820
 Alpha  occ. eigenvalues --   -0.66843  -0.66490  -0.65893  -0.62120  -0.60928
 Alpha  occ. eigenvalues --   -0.60273  -0.57878  -0.57098  -0.54472  -0.53755
 Alpha  occ. eigenvalues --   -0.53342  -0.52234  -0.51512  -0.50536  -0.50257
 Alpha  occ. eigenvalues --   -0.49811  -0.49613  -0.48219  -0.47078  -0.46938
 Alpha  occ. eigenvalues --   -0.46590  -0.45714  -0.45405  -0.45084  -0.44485
[...]
     5  C   -0.000329  -0.054725   0.467638  -0.040077   4.770104   0.413729
     6  H    0.000174   0.003757  -0.040876  -0.003522   0.413729   0.630194
     7  C    0.004338  -0.080139  -0.058295   0.007291   0.525384  -0.040058
     8  H    0.000345   0.004117   0.009540  -0.000067  -0.043496  -0.005978
     9  C   -0.066147   0.430859  -0.136250   0.002760  -0.039116   0.009050
    10  C   -0.008529  -0.043798   0.008065  -0.000789   0.009099  -0.000202
    11  N    0.345992  -0.028029   0.000141   0.000181  -0.000088   0.000002
    12  C   -0.026469   0.000254  -0.000002  -0.000006   0.000000  -0.000000
    13  H    0.000251   0.000180  -0.000005   0.000000  -0.000000  -0.000000
    14  C   -0.000818  -0.000103  -0.000002  -0.000000  -0.000000   0.000000
    15  H    0.000161   0.000002  -0.000000  -0.000000   0.000000  -0.000000
    16  C    0.003767   0.000033   0.000026   0.000001   0.000000  -0.000000
    17  H    0.000313  -0.000008   0.000000  -0.000000   0.000000  -0.000000
    18  C   -0.066468  -0.011315  -0.000353   0.000092  -0.000496   0.000005
    19  F    0.450377  -0.027094   0.005519   0.002387   0.000389   0.000002
    20  F    0.474260  -0.027120  -0.002526  -0.000380  -0.000085   0.000000
    21  C    0.002360   0.003790  -0.000172   0.000004   0.000570  -0.000001
    22  C   -0.000116   0.000059  -0.000043   0.000001   0.000296   0.000003
    23  H   -0.000023  -0.000189  -0.000092  -0.000001   0.000383   0.000006
    24  C    0.000002  -0.000000   0.000001   0.000000  -0.000011  -0.000000
    25  H    0.000000   0.000000  -0.000000  -0.000000  -0.000000   0.000000
    26  C   -0.000000  -0.000000   0.000000   0.000000  -0.000000  -0.000000
    27  C    0.000001   0.000001  -0.000000   0.000000  -0.000000  -0.000000
    28  H    0.000000  -0.000000   0.000000  -0.000000  -0.000000  -0.000000
    29  C    0.000006  -0.000074   0.000002  -0.000000  -0.000004   0.000000
    30  H   -0.000021  -0.000002  -0.000000  -0.000000  -0.000002   0.000000
    31  H    0.000000   0.000000   0.000000   0.000000  -0.000000  -0.000000
               7          8          9         10         11         12
     1  B    0.004338   0.000345  -0.066147  -0.008529   0.345992  -0.026469
     2  N   -0.080139   0.004117   0.430859  -0.043798  -0.028029   0.000254
     3  C   -0.058295   0.009540  -0.136250   0.008065   0.000141  -0.000002
     4  H    0.007291  -0.000067   0.002760  -0.000789   0.000181  -0.000006
     5  C    0.525384  -0.043496  -0.039116   0.009099  -0.000088   0.000000
     6  H   -0.040058  -0.005978   0.009050  -0.000202   0.000002  -0.000000
     7  C    4.920177   0.412623   0.452564  -0.105864   0.000073   0.000024
     8  H    0.412623   0.637223  -0.031642  -0.013820  -0.000007   0.000000
     9  C    0.452564  -0.031642   5.029555   0.310463  -0.011289  -0.000353
    10  C   -0.105864  -0.013820   0.310463   5.402057  -0.043977   0.008283
    11  N    0.000073  -0.000007  -0.011289  -0.043977   6.212067   0.482223
    12  C    0.000024   0.000000  -0.000353   0.008283   0.482223   4.782601
    13  H    0.000001  -0.000000   0.000099  -0.000825  -0.025421   0.403499
    14  C    0.000002  -0.000000  -0.000529   0.008666  -0.054539   0.466217
    15  H   -0.000000  -0.000000   0.000005  -0.000202   0.003775  -0.041075
    16  C   -0.000087   0.000003   0.011442  -0.105805  -0.081697  -0.057727
    17  H   -0.000000   0.000001   0.000068  -0.012125   0.004018   0.009499
    18  C    0.010531   0.000003  -0.003742   0.312560   0.431156  -0.135757
    19  F   -0.000119   0.000001  -0.003552   0.001370  -0.026251   0.005409
    20  F    0.000040   0.000001  -0.001274   0.000219  -0.028073  -0.002588
    21  C   -0.011223   0.003422  -0.076697   0.389767   0.003626  -0.000163
    22  C   -0.001780   0.003624  -0.018294  -0.075314  -0.000095   0.000001
    23  H    0.003983  -0.000704  -0.001453  -0.012936  -0.000003   0.000000
    24  C   -0.000465   0.000909   0.000642   0.007201   0.000000  -0.000000
    25  H    0.000012  -0.000002   0.000009  -0.000447  -0.000000   0.000000
    26  C   -0.000010  -0.000007   0.000001   0.001293  -0.000000   0.000000
    27  C   -0.000013  -0.000061  -0.000259   0.006987   0.000001   0.000000
    28  H   -0.000000   0.000000   0.000003  -0.000434   0.000000  -0.000000
    29  C    0.000778  -0.000104   0.005296  -0.076757   0.000129  -0.000049
    30  H    0.000031   0.000003   0.000458  -0.013204  -0.000166  -0.000111
    31  H   -0.000000   0.000001   0.000000   0.000005   0.000000   0.000000
              13         14         15         16         17         18
     1  B    0.000251  -0.000818   0.000161   0.003767   0.000313  -0.066468
     2  N    0.000180  -0.000103   0.000002   0.000033  -0.000008  -0.011315
     3  C   -0.000005  -0.000002  -0.000000   0.000026   0.000000  -0.000353
     4  H    0.000000  -0.000000  -0.000000   0.000001  -0.000000   0.000092
     5  C   -0.000000  -0.000000   0.000000   0.000000   0.000000  -0.000496
     6  H   -0.000000   0.000000  -0.000000  -0.000000  -0.000000   0.000005
     7  C    0.000001   0.000002  -0.000000  -0.000087  -0.000000   0.010531
     8  H   -0.000000  -0.000000  -0.000000   0.000003   0.000001   0.000003
     9  C    0.000099  -0.000529   0.000005   0.011442   0.000068  -0.003742
    10  C   -0.000825   0.008666  -0.000202  -0.105805  -0.012125   0.312560
    11  N   -0.025421  -0.054539   0.003775  -0.081697   0.004018   0.431156
    12  C    0.403499   0.466217  -0.041075  -0.057727   0.009499  -0.135757
    13  H    0.589703  -0.040047  -0.003514   0.007418  -0.000066   0.002644
    14  C   -0.040047   4.771646   0.413538   0.523479  -0.042764  -0.037796
    15  H   -0.003514   0.413538   0.630186  -0.039569  -0.006106   0.009062
    16  C    0.007418   0.523479  -0.039569   4.931954   0.412073   0.448724
    17  H   -0.000066  -0.042764  -0.006106   0.412073   0.635594  -0.032481
    18  C    0.002644  -0.037796   0.009062   0.448724  -0.032481   5.022718
    19  F    0.002040   0.000390   0.000002  -0.000118   0.000000  -0.003516
    20  F   -0.000339  -0.000149  -0.000000   0.000045   0.000001  -0.001326
    21  C    0.000005   0.000685  -0.000001  -0.012256   0.001905  -0.073342
    22  C   -0.000000   0.000009   0.000000   0.000555  -0.000170   0.005950
    23  H   -0.000000  -0.000001   0.000000  -0.000010   0.000000   0.000956
    24  C   -0.000000  -0.000000  -0.000000  -0.000004  -0.000050  -0.000316
    25  H   -0.000000   0.000000  -0.000000  -0.000000   0.000000   0.000003
    26  C    0.000000   0.000000  -0.000000  -0.000008  -0.000015   0.000001
    27  C    0.000000  -0.000014  -0.000000  -0.000261   0.001233   0.000599
    28  H   -0.000000  -0.000000   0.000000   0.000016  -0.000004   0.000013
    29  C    0.000000   0.000283   0.000006  -0.001149   0.004796  -0.016380
    30  H   -0.000001   0.000639   0.000010   0.004775  -0.001004  -0.002075
    31  H    0.000000  -0.000000  -0.000000  -0.000000   0.000000   0.000000
              19         20         21         22         23         24
     1  B    0.450377   0.474260   0.002360  -0.000116  -0.000023   0.000002
     2  N   -0.027094  -0.027120   0.003790   0.000059  -0.000189  -0.000000
     3  C    0.005519  -0.002526  -0.000172  -0.000043  -0.000092   0.000001
     4  H    0.002387  -0.000380   0.000004   0.000001  -0.000001   0.000000
     5  C    0.000389  -0.000085   0.000570   0.000296   0.000383  -0.000011
     6  H    0.000002   0.000000  -0.000001   0.000003   0.000006  -0.000000
     7  C   -0.000119   0.000040  -0.011223  -0.001780   0.003983  -0.000465
     8  H    0.000001   0.000001   0.003422   0.003624  -0.000704   0.000909
     9  C   -0.003552  -0.001274  -0.076697  -0.018294  -0.001453   0.000642
    10  C    0.001370   0.000219   0.389767  -0.075314  -0.012936   0.007201
    11  N   -0.026251  -0.028073   0.003626  -0.000095  -0.000003   0.000000
    12  C    0.005409  -0.002588  -0.000163   0.000001   0.000000  -0.000000
    13  H    0.002040  -0.000339   0.000005  -0.000000  -0.000000  -0.000000
    14  C    0.000390  -0.000149   0.000685   0.000009  -0.000001  -0.000000
    15  H    0.000002  -0.000000  -0.000001   0.000000   0.000000  -0.000000
    16  C   -0.000118   0.000045  -0.012256   0.000555  -0.000010  -0.000004
    17  H    0.000000   0.000001   0.001905  -0.000170   0.000000  -0.000050
    18  C   -0.003516  -0.001326  -0.073342   0.005950   0.000956  -0.000316
    19  F    8.854705  -0.020151   0.000003  -0.000000  -0.000000  -0.000000
    20  F   -0.020151   8.846533   0.000004   0.000000   0.000000   0.000000
    21  C    0.000003   0.000004   5.026601   0.492712  -0.050901  -0.008405
    22  C   -0.000000   0.000000   0.492712   4.804416   0.404313   0.521366
    23  H   -0.000000   0.000000  -0.050901   0.404313   0.671881  -0.035018
    24  C   -0.000000   0.000000  -0.008405   0.521366  -0.035018   4.714363
    25  H    0.000000  -0.000000   0.008424  -0.036289  -0.012443   0.398061
    26  C   -0.000000   0.000000  -0.063348  -0.020556   0.009042   0.510156
    27  C    0.000000  -0.000000  -0.008820  -0.065272  -0.000680  -0.010284
    28  H    0.000000   0.000000   0.008330   0.000096   0.000053   0.008317
    29  C    0.000000  -0.000000   0.494198  -0.024339   0.009634  -0.065563
    30  H    0.000000  -0.000000  -0.049647   0.009280  -0.000172  -0.000630
    31  H   -0.000000   0.000000  -0.000504   0.009326  -0.000190  -0.043507
              25         26         27         28         29         30
     1  B    0.000000  -0.000000   0.000001   0.000000   0.000006  -0.000021
     2  N    0.000000  -0.000000   0.000001  -0.000000  -0.000074  -0.000002
     3  C   -0.000000   0.000000  -0.000000   0.000000   0.000002  -0.000000
     4  H   -0.000000   0.000000   0.000000  -0.000000  -0.000000  -0.000000
     5  C   -0.000000  -0.000000  -0.000000  -0.000000  -0.000004  -0.000002
     6  H    0.000000  -0.000000  -0.000000  -0.000000   0.000000   0.000000
     7  C    0.000012  -0.000010  -0.000013  -0.000000   0.000778   0.000031
     8  H   -0.000002  -0.000007  -0.000061   0.000000  -0.000104   0.000003
     9  C    0.000009   0.000001  -0.000259   0.000003   0.005296   0.000458
    10  C   -0.000447   0.001293   0.006987  -0.000434  -0.076757  -0.013204
    11  N   -0.000000  -0.000000   0.000001   0.000000   0.000129  -0.000166
    12  C    0.000000   0.000000   0.000000  -0.000000  -0.000049  -0.000111
    13  H   -0.000000   0.000000   0.000000  -0.000000   0.000000  -0.000001
    14  C    0.000000   0.000000  -0.000014  -0.000000   0.000283   0.000639
    15  H   -0.000000  -0.000000  -0.000000   0.000000   0.000006   0.000010
    16  C   -0.000000  -0.000008  -0.000261   0.000016  -0.001149   0.004775
    17  H    0.000000  -0.000015   0.001233  -0.000004   0.004796  -0.001004
    18  C    0.000003   0.000001   0.000599   0.000013  -0.016380  -0.002075
    19  F    0.000000  -0.000000   0.000000   0.000000   0.000000   0.000000
    20  F   -0.000000   0.000000  -0.000000   0.000000  -0.000000  -0.000000
    21  C    0.008424  -0.063348  -0.008820   0.008330   0.494198  -0.049647
    22  C   -0.036289  -0.020556  -0.065272   0.000096  -0.024339   0.009280
    23  H   -0.012443   0.009042  -0.000680   0.000053   0.009634  -0.000172
    24  C    0.398061   0.510156  -0.010284   0.008317  -0.065563  -0.000630
    25  H    0.667658  -0.045065   0.008344  -0.000210   0.000057   0.000053
    26  C   -0.045065   4.759456   0.512117  -0.044806  -0.021132   0.008888
    27  C    0.008344   0.512117   4.712061   0.397771   0.521137  -0.034095
    28  H   -0.000210  -0.044806   0.397771   0.667451  -0.036059  -0.012383
    29  C    0.000057  -0.021132   0.521137  -0.036059   4.808481   0.402516
    30  H    0.000053   0.008888  -0.034095  -0.012383   0.402516   0.670354
    31  H   -0.012256   0.402664  -0.043371  -0.012263   0.009380  -0.000192
              31
     1  B    0.000000
     2  N    0.000000
     3  C    0.000000
     4  H    0.000000
     5  C   -0.000000
     6  H   -0.000000
     7  C   -0.000000
     8  H    0.000001
     9  C    0.000000
    10  C    0.000005
    11  N    0.000000
    12  C    0.000000
    13  H    0.000000
    14  C   -0.000000
    15  H   -0.000000
    16  C   -0.000000
    17  H    0.000000
    18  C    0.000000
    19  F   -0.000000
    20  F    0.000000
    21  C   -0.000504
    22  C    0.009326
    23  H   -0.000190
    24  C   -0.043507
    25  H   -0.012256
    26  C    0.402664
    27  C   -0.043371
    28  H   -0.012263
    29  C    0.009380
    30  H   -0.000192
    31  H    0.668208
 Mulliken charges:
               1
     1  B    0.168980
     2  N   -0.180045
     3  C    0.104980
     4  H    0.064092
     5  C   -0.009164
     6  H    0.033716
     7  C   -0.039793
     8  H    0.024072
     9  C    0.137323
    10  C    0.048992
    11  N   -0.183750
    12  C    0.106289
    13  H    0.064378
    14  C   -0.008789
    15  H    0.033720
    16  C   -0.045618
    17  H    0.025293
    18  C    0.140346
    19  F   -0.241795
    20  F   -0.237092
    21  C   -0.080924
    22  C   -0.009739
    23  H    0.014565
    24  C    0.003236
    25  H    0.024093
    26  C   -0.008668
    27  C    0.002878
    28  H    0.024111
    29  C   -0.015088
    30  H    0.016701
    31  H    0.022699
 Sum of Mulliken charges =  -0.00000
 Mulliken charges with hydrogens summed into heavy atoms:
               1
     1  B    0.168980
     2  N   -0.180045
     3  C    0.169073
     5  C    0.024552
     7  C   -0.015721
     9  C    0.137323
    10  C    0.048992
    11  N   -0.183750
    12  C    0.170667
    14  C    0.024931
    16  C   -0.020325
    18  C    0.140346
    19  F   -0.241795
    20  F   -0.237092
    21  C   -0.080924
    22  C    0.004826
    24  C    0.027329
    26  C    0.014031
    27  C    0.026989
    29  C    0.001612
 Electronic spatial extent (au):  <R**2>=           8488.4612
 Charge=              0.0000 electrons
 Dipole moment (field-independent basis, Debye):
    X=             -4.1295    Y=              1.3453    Z=              3.2154  Tot=              5.4038
 Quadrupole moment (field-independent basis, Debye-Ang):
   XX=            -87.1846   YY=           -118.7433   ZZ=            -87.5157
   XY=             -3.1620   XZ=             -1.6809   YZ=             -3.5497
 Traceless Quadrupole moment (field-independent basis, Debye-Ang):
   XX=             10.6299   YY=            -20.9288   ZZ=             10.2988
   XY=             -3.1620   XZ=             -1.6809   YZ=             -3.5497
 Octapole moment (field-independent basis, Debye-Ang**2):
  XXX=            605.1848  YYY=             13.8472  ZZZ=           -485.1596  XYY=            242.7654
  XXY=             31.7722  XXZ=           -117.3904  XZZ=            182.2208  YZZ=            -16.8375
  YYZ=           -184.9417  XYZ=              9.9523
 Hexadecapole moment (field-independent basis, Debye-Ang**3):
 XXXX=          -5769.7310 YYYY=           -368.9668 ZZZZ=          -4313.0229 XXXY=           -171.1582
 XXXZ=           1281.3490 YYYX=             33.8807 YYYZ=             55.9472 ZZZX=           1480.0385
 ZZZY=            -68.9269 XXYY=          -1163.1276 XXZZ=          -1442.3277 YYZZ=           -869.2265
 XXYZ=             28.9962 YYXZ=            546.5414 ZZXY=            100.8180
 N-N= 1.465703736092D+03 E-N=-5.061155711898D+03  KE= 9.065628175923D+02
 No NMR shielding tensors so no spin-rotation constants.
 Leave Link  601 at Mon Jan 31 15:39:53 2022, MaxMem= 49660559360 cpu:               9.9 elap:               0.4
 (Enter /lustre1/prg/gaussian/bin/G16_C01_Linda_AVX2/g16/l9999.exe)
 Electronic transition elements 
                 1             2             3             4             5 
      1  -0.912096D+03 -0.912052D+03 -0.912048D+03 -0.912037D+03 -0.912034D+03
      2   0.192039D+01 -0.180104D+01 -0.730948D+00 -0.657936D+00  0.107181D+00
      3  -0.508457D-01 -0.780023D-01  0.933530D-02 -0.375146D-02 -0.310778D+00
      4   0.257039D+01  0.144471D+01 -0.758100D+00  0.480909D+00 -0.190149D-01
      5  -0.188806D+00  0.253738D+00  0.108513D+00  0.103983D+00 -0.200619D-01
      6   0.590435D-02  0.108770D-01 -0.174735D-02  0.137070D-02  0.530566D-01
      7  -0.252679D+00 -0.204083D+00  0.113376D+00 -0.768061D-01 -0.105616D-03
      8  -0.169770D-01  0.374012D-01 -0.733828D-02 -0.796543D-01 -0.432520D+00
      9  -0.235506D+01  0.613674D-01 -0.510313D+00 -0.108963D+00 -0.547557D+00
     10  -0.341541D-01 -0.532661D-01  0.697455D-01 -0.158462D+00 -0.547564D+00
     11   0.730396D+00 -0.255499D+01 -0.101917D+01 -0.606313D+00  0.330430D+00
     12   0.155871D-02 -0.688699D-01 -0.283892D-02  0.407786D-04 -0.109563D-01
     13  -0.756628D+00 -0.118392D+01  0.805606D+00 -0.449982D+00 -0.250497D+00
     14  -0.514167D-01 -0.122418D-01  0.447471D-01 -0.521119D-01 -0.420982D+00
     15   0.219347D+00  0.271900D+01 -0.868414D-01  0.368517D+00  0.635564D-01
     16  -0.531841D-01  0.793125D-01  0.953007D-02  0.322219D-01  0.341161D+00
                 6 
      1  -0.911988D+03
      2   0.889440D+00
      3   0.876170D-01
      4  -0.689056D+00
      5  -0.181477D+00
      6  -0.172933D-01
      7   0.141227D+00
      8   0.107458D-01
      9   0.287891D-01
     10   0.112586D+00
     11   0.111272D+01
     12   0.765315D-01
     13   0.166597D+00
     14   0.264083D-01
     15  -0.176495D+01
     16  -0.879607D-01
 Unable to Open any file for archive entry.
 1\1\VILNIUS-FIZIKA341\FOpt\RM062X TD-FC\CC-pVDZ\C15H11B1F2N2\TOLISTE\3
 1-Jan-2022\0\\#p m062x cc-pvdz scrf=(cpcm,solvent=DiMethylSulfoxide) t
 d=(nstate=6,root=1) opt=tight nosymm density=all int=ultrafine fchk\\B
 DP-phenyl, optimized S1 in toluene\\0,1\B,-0.0154089255,-0.2499324109,
 0.0108358742\N,0.0014062165,-0.0672185215,1.5433292045\C,1.0972690504,
 0.036793688,2.3053570572\H,2.0892546015,0.0364477687,1.8581019907\C,0.
 7254566703,0.1439894007,3.6727066387\H,1.4165175981,0.2469582201,4.504
 5089386\C,-0.6598332094,0.107934308,3.7225285679\H,-1.2967132547,0.196
 6803653,4.5971996397\C,-1.123628826,-0.0264288173,2.3783519128\C,-2.44
 53117649,-0.0325621067,1.8511365337\N,-1.4730966896,0.0443893077,-0.40
 92123724\C,-1.9009118661,0.1543452461,-1.6730215823\H,-1.1956739362,0.
 1625300009,-2.5017388784\C,-3.3195588168,0.2235866132,-1.6983651734\H,
 -3.9282199197,0.3116028393,-2.5938196382\C,-3.7555470456,0.1475576137,
 -0.3841192148\H,-4.7799648552,0.1556065369,-0.0264426196\C,-2.59186748
 47,0.0460754747,0.4385936706\F,0.8649940196,0.6426430907,-0.600197433\
 F,0.3338512698,-1.5618235483,-0.3340526684\C,-3.6085884852,-0.04679343
 87,2.7526560459\C,-3.6736181665,-0.9711380728,3.8100841221\H,-2.866606
 1834,-1.6942439257,3.94055407\C,-4.7681199898,-0.9885710248,4.67060718
 49\H,-4.8060188146,-1.71910785,5.479352356\C,-5.8154587099,-0.08253106
 95,4.4945829036\C,-5.7593389833,0.8433358305,3.4519124375\H,-6.5670733
 487,1.5630070619,3.3147367956\C,-4.6671595699,0.8630299753,2.587805946
 9\H,-4.6166048471,1.6107186073,1.7950317331\H,-6.6718297332,-0.0968831
 628,5.1694169564\\Version=ES64L-G16RevC.01\HF=-912.1921622\RMSD=9.467e
 -09\RMSF=1.902e-06\Dipole=-1.6246764,0.5292998,1.2650184\Quadrupole=7.
 9030925,-15.5600289,7.6569365,-2.3508697,-1.2497234,-2.6390894\PG=C01 
 [X(C15H11B1F2N2)]\\@
 The archive entry for this job was punched.


 IT IS THE GODS' CUSTOM TO BRING LOW ALL THINGS OF SURPASSING GREATNESS.
     -- HERODOTUS
 IT IS THE LOFTY PINE THAT BY THE STORM IS OFTENER TOSSED;
 TOWERS FALL WITH HEAVIER CRASH WHICH HIGHER SOAR.
     -- HORACE
 THE BIGGER THEY COME, THE HARDER THEY FALL.
     -- BOB FITZSIMONS HEAVYWEIGHT CHAMPION, 1897-1899
 Job cpu time:       0 days  0 hours  7 minutes 14.5 seconds.
 Elapsed time:       0 days  1 hours 49 minutes  3.9 seconds.
 File lengths (MBytes):  RWF=    779 Int=      0 D2E=      0 Chk=     37 Scr=      1
 Normal termination of Gaussian 16 at Mon Jan 31 15:39:54 2022.
