 Entering Gaussian System, Link 0=/lustre1/prg/gaussian/bin/G16_C01_Linda_AVX2/g16/g16
 Initial command:
 /lustre1/prg/gaussian/bin/G16_C01_Linda_AVX2/g16/l1.exe "/lustre1/prg/webmo/data/webmo20/toliste/4367/scratch/Gau-2029817.inp" -scrdir="/lustre1/prg/webmo/data/webmo20/toliste/4367/scratch/"
 Default is to use a total of  32 processors:
                               32 via shared-memory
                                1 via Linda
 Entering Link 1 = /lustre1/prg/gaussian/bin/G16_C01_Linda_AVX2/g16/l1.exe PID=   2029818.
  
 Copyright (c) 1988-2019, Gaussian, Inc.  All Rights Reserved.
  
 This is part of the Gaussian(R) 16 program.  It is based on
 the Gaussian(R) 09 system (copyright 2009, Gaussian, Inc.),
 the Gaussian(R) 03 system (copyright 2003, Gaussian, Inc.),
 the Gaussian(R) 98 system (copyright 1998, Gaussian, Inc.),
 the Gaussian(R) 94 system (copyright 1995, Gaussian, Inc.),
 the Gaussian 92(TM) system (copyright 1992, Gaussian, Inc.),
 the Gaussian 90(TM) system (copyright 1990, Gaussian, Inc.),
 the Gaussian 88(TM) system (copyright 1988, Gaussian, Inc.),
 the Gaussian 86(TM) system (copyright 1986, Carnegie Mellon
 University), and the Gaussian 82(TM) system (copyright 1983,
 Carnegie Mellon University). Gaussian is a federally registered
 trademark of Gaussian, Inc.
  
 This software contains proprietary and confidential information,
 including trade secrets, belonging to Gaussian, Inc.
  
 This software is provided under written license and may be
 used, copied, transmitted, or stored only in accord with that
 written license.
  
 The following legend is applicable only to US Government
 contracts under FAR:
  
                    RESTRICTED RIGHTS LEGEND
  
 Use, reproduction and disclosure by the US Government is
 subject to restrictions as set forth in subparagraphs (a)
 and (c) of the Commercial Computer Software - Restricted
 Rights clause in FAR 52.227-19.
  
 Gaussian, Inc.
 340 Quinnipiac St., Bldg. 40, Wallingford CT 06492
  
  
 ---------------------------------------------------------------
 Warning -- This program may not be used in any manner that
 competes with the business of Gaussian, Inc. or will provide
 assistance to any competitor of Gaussian, Inc.  The licensee
 of this program is prohibited from giving any competitor of
 Gaussian, Inc. access to this program.  By using this program,
 the user acknowledges that Gaussian, Inc. is engaged in the
 business of creating and licensing software in the field of
 computational chemistry and represents and warrants to the
 licensee that it is not a competitor of Gaussian, Inc. and that
 it will not use this program in any manner prohibited above.
 ---------------------------------------------------------------
  

 Cite this work as:
 Gaussian 16, Revision C.01,
 M. J. Frisch, G. W. Trucks, H. B. Schlegel, G. E. Scuseria, 
 M. A. Robb, J. R. Cheeseman, G. Scalmani, V. Barone, 
 G. A. Petersson, H. Nakatsuji, X. Li, M. Caricato, A. V. Marenich, 
 J. Bloino, B. G. Janesko, R. Gomperts, B. Mennucci, H. P. Hratchian, 
 J. V. Ortiz, A. F. Izmaylov, J. L. Sonnenberg, D. Williams-Young, 
 F. Ding, F. Lipparini, F. Egidi, J. Goings, B. Peng, A. Petrone, 
 T. Henderson, D. Ranasinghe, V. G. Zakrzewski, J. Gao, N. Rega, 
 G. Zheng, W. Liang, M. Hada, M. Ehara, K. Toyota, R. Fukuda, 
 J. Hasegawa, M. Ishida, T. Nakajima, Y. Honda, O. Kitao, H. Nakai, 
 T. Vreven, K. Throssell, J. A. Montgomery, Jr., J. E. Peralta, 
 F. Ogliaro, M. J. Bearpark, J. J. Heyd, E. N. Brothers, K. N. Kudin, 
 V. N. Staroverov, T. A. Keith, R. Kobayashi, J. Normand, 
 K. Raghavachari, A. P. Rendell, J. C. Burant, S. S. Iyengar, 
 J. Tomasi, M. Cossi, J. M. Millam, M. Klene, C. Adamo, R. Cammi, 
 J. W. Ochterski, R. L. Martin, K. Morokuma, O. Farkas, 
 J. B. Foresman, and D. J. Fox, Gaussian, Inc., Wallingford CT, 2019.
 
 ******************************************
 Gaussian 16:  ES64L-G16RevC.01  3-Jul-2019
                31-Jan-2022 
 ******************************************
 %LindaWorkers=fizika349,fizika350
 %chk=bodipy.chk
 SetLPE:  input flags=" -opt "Tsnet.Node.lindarsharg: ssh" "
 SetLPE:    new flags=" -opt "Tsnet.Node.lindarsharg: ssh" -opt 'Tsnet.Node.lindarsharg: ssh'  -nodelist 'fizika349.fizika.bullx fizika350.fizika.bullx' -env GAUSS_MDEF=49660559360 -env GAUSS_EXEDIR="/lustre1/prg/gaussian/bin/G16_C01_Linda_AVX2/g16/bsd:/lustre1/prg/gaussian/bin/G16_C01_Linda_AVX2/g16/private:/lustre1/prg/gaussian/bin/G16_C01_Linda_AVX2/g16""
 Will use up to    2 processors via Linda.
 ----------------------------------------------------------------------
 #p m062x cc-pvdz scrf=(cpcm,solvent=n,n-DiMethylFormamide) td=(nstate=
 6,root=1) opt=tight nosymm density=all int=ultrafine fchk
 ----------------------------------------------------------------------
 1/7=10,18=20,19=15,26=6,38=1/1,3;
 2/9=110,12=2,15=1,17=6,18=5,40=1/2;
 3/5=16,11=9,25=1,30=1,70=2101,71=1,72=148,74=-55,75=-5/1,2,3,8;
 4//1;
 5/5=2,38=5,53=148/2;
 8/6=1,10=1,107=1,108=6/1;
 9/8=1,15=2,30=10,41=6,42=1,70=2/14;
 10/5=4,28=1,31=1/2;
 6/7=2,8=2,9=2,10=2,22=-2/1;
 7/12=6,13=5,14=1,30=1/1,2,3,16;
 1/7=10,18=20,19=15,26=6/3(2);
 2/9=110,15=1/2;
 99//99;
 2/9=110,15=1/2;
 3/5=16,11=9,25=1,30=1,70=2105,71=1,72=148,74=-55,75=-5/1,2,3,8;
 4/5=5,16=3,69=1/1;
 5/5=2,38=5,53=148/2;
 8/6=1,10=1,107=1,108=6/1;
 9/8=1,15=2,30=10,41=6,42=1,49=4,70=2/14;
 10/5=4,28=1,31=1/2;
 7/12=6,13=5,14=1,30=1/1,2,3,16;
 1/7=10,18=20,19=15,26=6/3(-8);
 2/9=110,15=1/2;
 6/7=2,8=2,9=2,10=2,22=-2/1;
 99/9=10/99;
 Leave Link    1 at Mon Jan 31 13:52:43 2022, MaxMem=           0 cpu:               2.3 elap:               0.1
 (Enter /lustre1/prg/gaussian/bin/G16_C01_Linda_AVX2/g16/l101.exe)
 -----------------------------------
 BDP-phenyl, optimized R1 in toluene
 -----------------------------------
 Symbolic Z-matrix:
 Charge =  0 Multiplicity = 1
 B                    -0.22646   1.02681   0.36646 
 N                    -0.06346   0.11716   1.6183 
 C                     1.04881  -0.4059    2.13522 
 H                     2.02119  -0.16772   1.71082 
 C                     0.71474  -1.24518   3.22852 
 H                     1.42267  -1.78941   3.84689 
 C                    -0.67094  -1.22985   3.34561 
 H                    -1.28192  -1.79526   4.04248 
 C                    -1.16328  -0.35008   2.3457 
 C                    -2.50187  -0.00928   1.91758 
 N                    -1.51319   0.44742  -0.28853 
 C                    -1.77437   0.23585  -1.57892 
 H                    -1.06149   0.53442  -2.34383 
 C                    -3.03758  -0.39527  -1.70995 
 H                    -3.51184  -0.6718   -2.64717 
 C                    -3.53461  -0.58315  -0.42471 
 H                    -4.45639  -1.08008  -0.13831 
 C                    -2.58533  -0.02833   0.47368 
 F                    -0.42456   2.34713   0.74603 
 F                     0.85674   0.8763   -0.48305 
 C                    -3.6264    0.15309   2.79958 
 C                    -3.46924   0.10032   4.20663 
 H                    -2.47734  -0.03957   4.63367 
 C                    -4.55662   0.26174   5.05338 
 H                    -4.40589   0.21851   6.13251 
 C                    -5.83355   0.49213   4.53442 
 C                    -6.00218   0.58814   3.15055 
 H                    -6.98729   0.80149   2.73438 
 C                    -4.92145   0.42812   2.29504 
 H                    -5.06883   0.54548   1.22249 
 H                    -6.6855    0.61676   5.20297 
 
 ITRead=  0  0  0  0  0  0  0  0  0  0  0  0  0  0  0  0  0  0  0  0
 ITRead=  0  0  0  0  0  0  0  0  0  0  0
 MicOpt= -1 -1 -1 -1 -1 -1 -1 -1 -1 -1 -1 -1 -1 -1 -1 -1 -1 -1 -1 -1
 MicOpt= -1 -1 -1 -1 -1 -1 -1 -1 -1 -1 -1
 NAtoms=     31 NQM=       31 NQMF=       0 NMMI=      0 NMMIF=      0
                NMic=       0 NMicF=      0.
                    Isotopes and Nuclear Properties:
 (Nuclear quadrupole moments (NQMom) in fm**2, nuclear magnetic moments (NMagM)
  in nuclear magnetons)

  Atom         1           2           3           4           5           6           7           8           9          10
 IAtWgt=          11          14          12           1          12           1          12           1          12          12
 AtmWgt=  11.0093053  14.0030740  12.0000000   1.0078250  12.0000000   1.0078250  12.0000000   1.0078250  12.0000000  12.0000000
 NucSpn=           3           2           0           1           0           1           0           1           0           0
 AtZEff=  -0.0000000  -0.0000000  -0.0000000  -0.0000000  -0.0000000  -0.0000000  -0.0000000  -0.0000000  -0.0000000  -0.0000000
 NQMom=    4.0590000   2.0440000   0.0000000   0.0000000   0.0000000   0.0000000   0.0000000   0.0000000   0.0000000   0.0000000
 NMagM=    2.6886370   0.4037610   0.0000000   2.7928460   0.0000000   2.7928460   0.0000000   2.7928460   0.0000000   0.0000000
 AtZNuc=   5.0000000   7.0000000   6.0000000   1.0000000   6.0000000   1.0000000   6.0000000   1.0000000   6.0000000   6.0000000

  Atom        11          12          13          14          15          16          17          18          19          20
 IAtWgt=          14          12           1          12           1          12           1          12          19          19
 AtmWgt=  14.0030740  12.0000000   1.0078250  12.0000000   1.0078250  12.0000000   1.0078250  12.0000000  18.9984032  18.9984032
 NucSpn=           2           0           1           0           1           0           1           0           1           1
 AtZEff=  -0.0000000  -0.0000000  -0.0000000  -0.0000000  -0.0000000  -0.0000000  -0.0000000  -0.0000000  -0.0000000  -0.0000000
 NQMom=    2.0440000   0.0000000   0.0000000   0.0000000   0.0000000   0.0000000   0.0000000   0.0000000   0.0000000   0.0000000
 NMagM=    0.4037610   0.0000000   2.7928460   0.0000000   2.7928460   0.0000000   2.7928460   0.0000000   2.6288670   2.6288670
 AtZNuc=   7.0000000   6.0000000   1.0000000   6.0000000   1.0000000   6.0000000   1.0000000   6.0000000   9.0000000   9.0000000

  Atom        21          22          23          24          25          26          27          28          29          30
 IAtWgt=          12          12           1          12           1          12          12           1          12           1
 AtmWgt=  12.0000000  12.0000000   1.0078250  12.0000000   1.0078250  12.0000000  12.0000000   1.0078250  12.0000000   1.0078250
 NucSpn=           0           0           1           0           1           0           0           1           0           1
 AtZEff=  -0.0000000  -0.0000000  -0.0000000  -0.0000000  -0.0000000  -0.0000000  -0.0000000  -0.0000000  -0.0000000  -0.0000000
 NQMom=    0.0000000   0.0000000   0.0000000   0.0000000   0.0000000   0.0000000   0.0000000   0.0000000   0.0000000   0.0000000
 NMagM=    0.0000000   0.0000000   2.7928460   0.0000000   2.7928460   0.0000000   0.0000000   2.7928460   0.0000000   2.7928460
 AtZNuc=   6.0000000   6.0000000   1.0000000   6.0000000   1.0000000   6.0000000   6.0000000   1.0000000   6.0000000   1.0000000

  Atom        31
 IAtWgt=           1
 AtmWgt=   1.0078250
 NucSpn=           1
 AtZEff=  -0.0000000
 NQMom=    0.0000000
 NMagM=    2.7928460
 AtZNuc=   1.0000000
 Leave Link  101 at Mon Jan 31 13:52:44 2022, MaxMem= 49660559360 cpu:              26.1 elap:               0.8
 (Enter /lustre1/prg/gaussian/bin/G16_C01_Linda_AVX2/g16/l103.exe)

 GradGradGradGradGradGradGradGradGradGradGradGradGradGradGradGradGradGrad
 Berny optimization.
 Initialization pass.
                           ----------------------------
                           !    Initial Parameters    !
                           ! (Angstroms and Degrees)  !
 --------------------------                            --------------------------
 ! Name  Definition              Value          Derivative Info.                !
 --------------------------------------------------------------------------------
 ! R1    R(1,2)                  1.556          estimate D2E/DX2                !
 ! R2    R(1,11)                 1.5558         estimate D2E/DX2                !
 ! R3    R(1,19)                 1.388          estimate D2E/DX2                !
 ! R4    R(1,20)                 1.3848         estimate D2E/DX2                !
 ! R5    R(2,3)                  1.3334         estimate D2E/DX2                !
 ! R6    R(2,9)                  1.3989         estimate D2E/DX2                !
 ! R7    R(3,4)                  1.0874         estimate D2E/DX2                !
 ! R8    R(3,5)                  1.4182         estimate D2E/DX2                !
 ! R9    R(5,6)                  1.0862         estimate D2E/DX2                !
 ! R10   R(5,7)                  1.3907         estimate D2E/DX2                !
 ! R11   R(7,8)                  1.0856         estimate D2E/DX2                !
 ! R12   R(7,9)                  1.4199         estimate D2E/DX2                !
 ! R13   R(9,10)                 1.4461         estimate D2E/DX2                !
 ! R14   R(10,18)                1.4464         estimate D2E/DX2                !
 ! R15   R(10,21)                1.4384         estimate D2E/DX2                !
 ! R16   R(11,12)                1.3335         estimate D2E/DX2                !
 ! R17   R(11,18)                1.3989         estimate D2E/DX2                !
 ! R18   R(12,13)                1.0874         estimate D2E/DX2                !
 ! R19   R(12,14)                1.4182         estimate D2E/DX2                !
 ! R20   R(14,15)                1.0862         estimate D2E/DX2                !
 ! R21   R(14,16)                1.3907         estimate D2E/DX2                !
 ! R22   R(16,17)                1.0857         estimate D2E/DX2                !
 ! R23   R(16,18)                1.4199         estimate D2E/DX2                !
 ! R24   R(21,22)                1.4168         estimate D2E/DX2                !
 ! R25   R(21,29)                1.4168         estimate D2E/DX2                !
 ! R26   R(22,23)                1.0889         estimate D2E/DX2                !
 ! R27   R(22,24)                1.3876         estimate D2E/DX2                !
 ! R28   R(24,25)                1.0905         estimate D2E/DX2                !
 ! R29   R(24,26)                1.3975         estimate D2E/DX2                !
 ! R30   R(26,27)                1.3974         estimate D2E/DX2                !
 ! R31   R(26,31)                1.0901         estimate D2E/DX2                !
 ! R32   R(27,28)                1.0905         estimate D2E/DX2                !
 ! R33   R(27,29)                1.3876         estimate D2E/DX2                !
 ! R34   R(29,30)                1.089          estimate D2E/DX2                !
 ! A1    A(2,1,11)             101.9836         estimate D2E/DX2                !
 ! A2    A(2,1,19)             110.5514         estimate D2E/DX2                !
 ! A3    A(2,1,20)             110.3687         estimate D2E/DX2                !
 ! A4    A(11,1,19)            110.5695         estimate D2E/DX2                !
 ! A5    A(11,1,20)            110.3771         estimate D2E/DX2                !
 ! A6    A(19,1,20)            112.5065         estimate D2E/DX2                !
 ! A7    A(1,2,3)              128.9472         estimate D2E/DX2                !
 ! A8    A(1,2,9)              122.0884         estimate D2E/DX2                !
 ! A9    A(3,2,9)              108.8569         estimate D2E/DX2                !
 ! A10   A(2,3,4)              120.5784         estimate D2E/DX2                !
 ! A11   A(2,3,5)              109.543          estimate D2E/DX2                !
 ! A12   A(4,3,5)              129.8783         estimate D2E/DX2                !
 ! A13   A(3,5,6)              125.5836         estimate D2E/DX2                !
 ! A14   A(3,5,7)              107.0431         estimate D2E/DX2                !
 ! A15   A(6,5,7)              127.3733         estimate D2E/DX2                !
 ! A16   A(5,7,8)              127.5214         estimate D2E/DX2                !
 ! A17   A(5,7,9)              107.0385         estimate D2E/DX2                !
 ! A18   A(8,7,9)              125.4206         estimate D2E/DX2                !
 ! A19   A(2,9,7)              107.488          estimate D2E/DX2                !
 ! A20   A(2,9,10)             119.675          estimate D2E/DX2                !
 ! A21   A(7,9,10)             132.4882         estimate D2E/DX2                !
 ! A22   A(9,10,18)            110.2326         estimate D2E/DX2                !
 ! A23   A(9,10,21)            124.6633         estimate D2E/DX2                !
 ! A24   A(18,10,21)           124.646          estimate D2E/DX2                !
 ! A25   A(1,11,12)            128.9401         estimate D2E/DX2                !
 ! A26   A(1,11,18)            122.0841         estimate D2E/DX2                !
 ! A27   A(12,11,18)           108.8567         estimate D2E/DX2                !
 ! A28   A(11,12,13)           120.5797         estimate D2E/DX2                !
 ! A29   A(11,12,14)           109.5416         estimate D2E/DX2                !
 ! A30   A(13,12,14)           129.8783         estimate D2E/DX2                !
 ! A31   A(12,14,15)           125.5878         estimate D2E/DX2                !
 ! A32   A(12,14,16)           107.0417         estimate D2E/DX2                !
 ! A33   A(15,14,16)           127.3705         estimate D2E/DX2                !
 ! A34   A(14,16,17)           127.5219         estimate D2E/DX2                !
 ! A35   A(14,16,18)           107.0379         estimate D2E/DX2                !
 ! A36   A(17,16,18)           125.4214         estimate D2E/DX2                !
 ! A37   A(10,18,11)           119.6848         estimate D2E/DX2                !
 ! A38   A(10,18,16)           132.4802         estimate D2E/DX2                !
 ! A39   A(11,18,16)           107.4904         estimate D2E/DX2                !
 ! A40   A(10,21,22)           121.2024         estimate D2E/DX2                !
 ! A41   A(10,21,29)           121.2096         estimate D2E/DX2                !
 ! A42   A(22,21,29)           117.5349         estimate D2E/DX2                !
 ! A43   A(21,22,23)           119.6891         estimate D2E/DX2                !
 ! A44   A(21,22,24)           120.9828         estimate D2E/DX2                !
 ! A45   A(23,22,24)           119.3034         estimate D2E/DX2                !
 ! A46   A(22,24,25)           119.4035         estimate D2E/DX2                !
 ! A47   A(22,24,26)           120.571          estimate D2E/DX2                !
 ! A48   A(25,24,26)           120.0219         estimate D2E/DX2                !
 ! A49   A(24,26,27)           119.2974         estimate D2E/DX2                !
 ! A50   A(24,26,31)           120.3456         estimate D2E/DX2                !
 ! A51   A(27,26,31)           120.3443         estimate D2E/DX2                !
 ! A52   A(26,27,28)           120.0258         estimate D2E/DX2                !
 ! A53   A(26,27,29)           120.5743         estimate D2E/DX2                !
 ! A54   A(28,27,29)           119.3964         estimate D2E/DX2                !
 ! A55   A(21,29,27)           120.9797         estimate D2E/DX2                !
 ! A56   A(21,29,30)           119.6945         estimate D2E/DX2                !
 ! A57   A(27,29,30)           119.3008         estimate D2E/DX2                !
 ! D1    D(11,1,2,3)           139.2715         estimate D2E/DX2                !
 ! D2    D(11,1,2,9)           -36.5239         estimate D2E/DX2                !
 ! D3    D(19,1,2,3)          -103.1373         estimate D2E/DX2                !
 ! D4    D(19,1,2,9)            81.0673         estimate D2E/DX2                !
 ! D5    D(20,1,2,3)            21.9809         estimate D2E/DX2                !
 ! D6    D(20,1,2,9)          -153.8145         estimate D2E/DX2                !
 ! D7    D(2,1,11,12)         -139.1822         estimate D2E/DX2                !
 ! D8    D(2,1,11,18)           36.3892         estimate D2E/DX2                !
 ! D9    D(19,1,11,12)         103.2396         estimate D2E/DX2                !
 ! D10   D(19,1,11,18)         -81.189          estimate D2E/DX2                !
 ! D11   D(20,1,11,12)         -21.8977         estimate D2E/DX2                !
 ! D12   D(20,1,11,18)         153.6737         estimate D2E/DX2                !
 ! D13   D(1,2,3,4)              3.712          estimate D2E/DX2                !
 ! D14   D(1,2,3,5)           -176.1031         estimate D2E/DX2                !
 ! D15   D(9,2,3,4)            179.9484         estimate D2E/DX2                !
 ! D16   D(9,2,3,5)              0.1333         estimate D2E/DX2                !
 ! D17   D(1,2,9,7)            175.3782         estimate D2E/DX2                !
 ! D18   D(1,2,9,10)             1.3375         estimate D2E/DX2                !
 ! D19   D(3,2,9,7)             -1.1673         estimate D2E/DX2                !
 ! D20   D(3,2,9,10)          -175.2081         estimate D2E/DX2                !
 ! D21   D(2,3,5,6)           -179.0094         estimate D2E/DX2                !
 ! D22   D(2,3,5,7)              0.9718         estimate D2E/DX2                !
 ! D23   D(4,3,5,6)              1.1981         estimate D2E/DX2                !
 ! D24   D(4,3,5,7)           -178.8207         estimate D2E/DX2                !
 ! D25   D(3,5,7,8)            176.797          estimate D2E/DX2                !
 ! D26   D(3,5,7,9)             -1.6516         estimate D2E/DX2                !
 ! D27   D(6,5,7,8)             -3.2222         estimate D2E/DX2                !
 ! D28   D(6,5,7,9)            178.3291         estimate D2E/DX2                !
 ! D29   D(5,7,9,2)              1.7472         estimate D2E/DX2                !
 ! D30   D(5,7,9,10)           174.7209         estimate D2E/DX2                !
 ! D31   D(8,7,9,2)           -176.7429         estimate D2E/DX2                !
 ! D32   D(8,7,9,10)            -3.7692         estimate D2E/DX2                !
 ! D33   D(2,9,10,18)           38.2167         estimate D2E/DX2                !
 ! D34   D(2,9,10,21)         -149.2588         estimate D2E/DX2                !
 ! D35   D(7,9,10,18)         -134.0662         estimate D2E/DX2                !
 ! D36   D(7,9,10,21)           38.4584         estimate D2E/DX2                !
 ! D37   D(9,10,18,11)         -38.3516         estimate D2E/DX2                !
 ! D38   D(9,10,18,16)         133.9795         estimate D2E/DX2                !
 ! D39   D(21,10,18,11)        149.1223         estimate D2E/DX2                !
 ! D40   D(21,10,18,16)        -38.5466         estimate D2E/DX2                !
 ! D41   D(9,10,21,22)           5.644          estimate D2E/DX2                !
 ! D42   D(9,10,21,29)        -177.0728         estimate D2E/DX2                !
 ! D43   D(18,10,21,22)        177.1106         estimate D2E/DX2                !
 ! D44   D(18,10,21,29)         -5.6062         estimate D2E/DX2                !
 ! D45   D(1,11,12,13)          -3.9072         estimate D2E/DX2                !
 ! D46   D(1,11,12,14)         175.8862         estimate D2E/DX2                !
 ! D47   D(18,11,12,13)       -179.943          estimate D2E/DX2                !
 ! D48   D(18,11,12,14)         -0.1496         estimate D2E/DX2                !
 ! D49   D(1,11,18,10)          -1.0846         estimate D2E/DX2                !
 ! D50   D(1,11,18,16)        -175.1616         estimate D2E/DX2                !
 ! D51   D(12,11,18,10)        175.2767         estimate D2E/DX2                !
 ! D52   D(12,11,18,16)          1.1996         estimate D2E/DX2                !
 ! D53   D(11,12,14,15)        178.9889         estimate D2E/DX2                !
 ! D54   D(11,12,14,16)         -0.9781         estimate D2E/DX2                !
 ! D55   D(13,12,14,15)         -1.2429         estimate D2E/DX2                !
 ! D56   D(13,12,14,16)        178.7901         estimate D2E/DX2                !
 ! D57   D(12,14,16,17)       -176.8002         estimate D2E/DX2                !
 ! D58   D(12,14,16,18)          1.6774         estimate D2E/DX2                !
 ! D59   D(15,14,16,17)          3.2335         estimate D2E/DX2                !
 ! D60   D(15,14,16,18)       -178.2888         estimate D2E/DX2                !
 ! D61   D(14,16,18,10)       -174.8011         estimate D2E/DX2                !
 ! D62   D(14,16,18,11)         -1.7829         estimate D2E/DX2                !
 ! D63   D(17,16,18,10)          3.7173         estimate D2E/DX2                !
 ! D64   D(17,16,18,11)        176.7355         estimate D2E/DX2                !
 ! D65   D(10,21,22,23)          1.615          estimate D2E/DX2                !
 ! D66   D(10,21,22,24)        179.7957         estimate D2E/DX2                !
 ! D67   D(29,21,22,23)       -175.7647         estimate D2E/DX2                !
 ! D68   D(29,21,22,24)          2.4161         estimate D2E/DX2                !
 ! D69   D(10,21,29,27)       -179.7904         estimate D2E/DX2                !
 ! D70   D(10,21,29,30)         -1.6203         estimate D2E/DX2                !
 ! D71   D(22,21,29,27)         -2.411          estimate D2E/DX2                !
 ! D72   D(22,21,29,30)        175.7591         estimate D2E/DX2                !
 ! D73   D(21,22,24,25)       -179.8708         estimate D2E/DX2                !
 ! D74   D(21,22,24,26)         -0.5504         estimate D2E/DX2                !
 ! D75   D(23,22,24,25)         -1.6831         estimate D2E/DX2                !
 ! D76   D(23,22,24,26)        177.6373         estimate D2E/DX2                !
 ! D77   D(22,24,26,27)         -1.3945         estimate D2E/DX2                !
 ! D78   D(22,24,26,31)        179.8982         estimate D2E/DX2                !
 ! D79   D(25,24,26,27)        177.9216         estimate D2E/DX2                !
 ! D80   D(25,24,26,31)         -0.7856         estimate D2E/DX2                !
 ! D81   D(24,26,27,28)       -177.9153         estimate D2E/DX2                !
 ! D82   D(24,26,27,29)          1.3996         estimate D2E/DX2                !
 ! D83   D(31,26,27,28)          0.7919         estimate D2E/DX2                !
 ! D84   D(31,26,27,29)       -179.8932         estimate D2E/DX2                !
 ! D85   D(26,27,29,21)          0.5402         estimate D2E/DX2                !
 ! D86   D(26,27,29,30)       -177.637          estimate D2E/DX2                !
 ! D87   D(28,27,29,21)        179.8594         estimate D2E/DX2                !
 ! D88   D(28,27,29,30)          1.6821         estimate D2E/DX2                !
 --------------------------------------------------------------------------------
 Trust Radius=3.00D-01 FncErr=5.00D-06 GrdErr=5.00D-06 EigMax=2.50D+02 EigMin=1.00D-04
 Number of steps in this run=    186 maximum allowed number of steps=    186.
 GradGradGradGradGradGradGradGradGradGradGradGradGradGradGradGradGradGrad

 Leave Link  103 at Mon Jan 31 13:52:44 2022, MaxMem= 49660559360 cpu:               0.7 elap:               0.0
 (Enter /lustre1/prg/gaussian/bin/G16_C01_Linda_AVX2/g16/l202.exe)
                          Input orientation:                          
 ---------------------------------------------------------------------
 Center     Atomic      Atomic             Coordinates (Angstroms)
 Number     Number       Type             X           Y           Z
 ---------------------------------------------------------------------
      1          5           0       -0.226459    1.026812    0.366463
      2          7           0       -0.063462    0.117158    1.618295
      3          6           0        1.048809   -0.405898    2.135222
      4          1           0        2.021194   -0.167721    1.710815
      5          6           0        0.714744   -1.245178    3.228518
      6          1           0        1.422671   -1.789411    3.846891
      7          6           0       -0.670943   -1.229853    3.345611
      8          1           0       -1.281919   -1.795257    4.042479
      9          6           0       -1.163278   -0.350078    2.345698
     10          6           0       -2.501871   -0.009279    1.917580
     11          7           0       -1.513186    0.447418   -0.288528
     12          6           0       -1.774374    0.235850   -1.578922
     13          1           0       -1.061486    0.534415   -2.343826
     14          6           0       -3.037583   -0.395268   -1.709952
     15          1           0       -3.511843   -0.671799   -2.647172
     16          6           0       -3.534609   -0.583147   -0.424714
     17          1           0       -4.456386   -1.080078   -0.138313
     18          6           0       -2.585327   -0.028326    0.473683
     19          9           0       -0.424564    2.347126    0.746029
     20          9           0        0.856740    0.876303   -0.483047
     21          6           0       -3.626401    0.153085    2.799581
     22          6           0       -3.469244    0.100324    4.206627
     23          1           0       -2.477342   -0.039565    4.633673
     24          6           0       -4.556616    0.261739    5.053379
     25          1           0       -4.405886    0.218510    6.132511
     26          6           0       -5.833553    0.492130    4.534417
     27          6           0       -6.002176    0.588139    3.150548
     28          1           0       -6.987290    0.801491    2.734377
     29          6           0       -4.921445    0.428118    2.295037
     30          1           0       -5.068829    0.545480    1.222494
     31          1           0       -6.685495    0.616763    5.202967
 ---------------------------------------------------------------------
                    Distance matrix (angstroms):
                    1          2          3          4          5
     1  B    0.000000
     2  N    1.555995   0.000000
     3  C    2.609114   1.333397   0.000000
     4  H    2.878565   2.106064   1.087374   0.000000
     5  C    3.773481   2.248195   1.418198   2.274016   0.000000
     6  H    4.771176   3.287892   2.232418   2.747895   1.086156
     7  C    3.763698   2.273124   2.258648   3.323896   1.390710
     8  H    4.753016   3.319433   3.316661   4.358450   2.225260
     9  C    2.586663   1.398935   2.222779   3.252260   2.259987
    10  C    2.942269   2.459959   3.579386   4.530560   3.686817
    11  N    1.555756   2.418004   3.628571   4.107020   4.494237
    12  C    2.608867   3.628154   4.709253   5.039005   5.612542
    13  H    2.878436   4.107135   5.039782   5.141597   6.113343
    14  C    3.773093   4.492795   5.611067   6.111027   6.260255
    15  H    4.770851   5.541479   6.613739   7.061207   7.260615
    16  C    3.763215   4.088175   5.252848   5.966574   5.642818
    17  H    4.752480   4.880249   5.994218   6.797846   6.172795
    18  C    2.586324   2.773284   4.013753   4.771788   4.467697
    19  F    1.388000   2.421570   3.417576   3.638269   4.512806
    20  F    1.384789   2.416342   2.921688   2.694248   4.277448
    21  C    4.271190   3.753833   4.755147   5.760526   4.580902
    22  C    5.110860   4.277744   4.995977   6.037039   4.502536
    23  H    4.940923   3.865732   4.337073   5.366223   3.690173
    24  C    6.426724   5.657662   6.354697   7.390856   5.778248
    25  H    7.167166   6.264588   6.791311   7.810757   6.066004
    26  C    7.006941   6.475980   7.343671   8.372884   6.899551
    27  C    6.426700   6.151256   7.192731   8.186490   6.963056
    28  H    7.167051   7.046513   8.148353   9.118105   7.984633
    29  C    5.110844   4.914741   6.030345   6.992609   5.952977
    30  H    4.940953   5.039228   6.258090   7.142516   6.378111
    31  H    8.079546   7.546575   8.383099   9.413659   7.882183
                    6          7          8          9         10
     6  H    0.000000
     7  C    2.224322   0.000000
     8  H    2.711659   1.085633   0.000000
     9  C    3.318492   1.419938   2.231969   0.000000
    10  C    4.721561   2.623237   3.032028   1.446119   0.000000
    11  N    5.542955   4.090181   4.882694   2.774452   2.460281
    12  C    6.615302   5.255176   5.997337   4.014896   3.579786
    13  H    7.063723   5.969494   6.801533   4.773293   4.530993
    14  C    7.260579   5.644133   6.175175   4.468037   3.687135
    15  H    8.232335   6.655493   7.140459   5.527026   4.721857
    16  C    6.654044   4.778510   5.147780   3.654137   2.623397
    17  H    7.137809   5.146818   5.297900   4.189006   3.032068
    18  C    5.526663   3.654655   4.190134   2.372802   1.446432
    19  F    5.489860   4.428691   5.362926   3.221731   3.352668
    20  F    5.116119   4.629074   5.673754   3.685957   4.222266
    21  C    5.510288   3.308383   3.292025   2.554635   1.438352
    22  C    5.256552   3.215775   2.899062   2.997232   2.487481
    23  H    4.346388   2.517730   2.204768   2.656692   2.716373
    24  C    6.435426   4.498864   3.997098   4.384130   3.758811
    25  H    6.574791   4.879997   4.264113   5.017744   4.630638
    26  C    7.637467   5.570550   5.117765   5.226019   4.266070
    27  C    7.827259   5.636062   5.362550   4.994294   3.758890
    28  H    8.870057   6.663048   6.403553   5.949479   4.630711
    29  C    6.897354   4.681810   4.609024   3.838225   2.487595
    30  H    7.380972   5.196233   5.269920   4.161363   2.716648
    31  H    8.565686   6.560076   6.030191   6.292348   5.356156
                   11         12         13         14         15
    11  N    0.000000
    12  C    1.333453   0.000000
    13  H    2.106146   1.087395   0.000000
    14  C    2.248189   1.418159   2.273998   0.000000
    15  H    3.287929   2.232439   2.747948   1.086174   0.000000
    16  C    2.273051   2.258623   3.323894   1.390744   2.224342
    17  H    3.319373   3.316656   4.358465   2.225313   2.711683
    18  C    1.398851   2.222751   3.252249   2.259965   3.318467
    19  F    2.421631   3.418314   3.638515   4.514470   5.491722
    20  F    2.416263   2.921281   2.694249   4.276440   5.115132
    21  C    3.753495   4.754802   5.760107   4.580752   5.510052
    22  C    4.914576   6.030218   6.992436   5.952970   6.897286
    23  H    5.039327   6.258303   7.142800   6.378242   7.381099
    24  C    6.150847   7.192285   8.185898   6.962885   7.826974
    25  H    7.046265   8.148089   9.117735   7.984560   8.869881
    26  C    6.475212   7.342719   8.371657   6.899063   7.636772
    27  C    5.656684   6.353448   7.389279   5.777574   6.434498
    28  H    6.263317   6.789624   7.808625   6.065021   6.573461
    29  C    4.276846   4.994855   6.035697   4.501870   5.255685
    30  H    3.864635   4.335578   5.364472   3.689201   4.345145
    31  H    7.545726   8.382018   9.412244   7.881619   8.564878
                   16         17         18         19         20
    16  C    0.000000
    17  H    1.085651   0.000000
    18  C    1.419887   2.231946   0.000000
    19  F    4.430521   5.365014   3.222707   0.000000
    20  F    4.627888   5.672352   3.685310   2.305578   0.000000
    21  C    3.308556   3.292535   2.554711   4.391202   5.603324
    22  C    4.681957   4.609371   3.838324   5.127761   6.427233
    23  H    5.196208   5.269832   4.161406   5.002396   6.175414
    24  C    5.636296   5.363225   4.994370   6.322654   7.767504
    25  H    6.663256   6.404070   5.949596   7.028237   8.479005
    26  C    5.570848   5.118870   5.226032   6.859304   8.371532
    27  C    4.499255   3.998627   4.384118   6.323409   7.767289
    28  H    4.880377   4.265926   5.017630   7.029359   8.478574
    29  C    3.216056   2.900367   2.997185   5.128738   6.426978
    30  H    2.518119   2.206654   2.656643   5.004213   6.175005
    31  H    6.560386   6.031374   6.292348   7.877672   9.448991
                   21         22         23         24         25
    21  C    0.000000
    22  C    1.416778   0.000000
    23  H    2.172865   1.088948   0.000000
    24  C    2.440637   1.387596   2.142503   0.000000
    25  H    3.423492   2.144830   2.456094   1.090465   0.000000
    26  C    2.827742   2.418867   3.399515   1.397487   2.160325
    27  C    2.440647   2.787295   3.875323   2.411835   3.402480
    28  H    3.423486   3.877603   4.965313   3.402540   4.307067
    29  C    1.416809   2.422914   3.414906   2.787334   3.877621
    30  H    2.172965   3.414950   4.323682   3.875378   4.965347
    31  H    3.917821   3.406416   4.296907   2.163457   2.493847
                   26         27         28         29         30
    26  C    0.000000
    27  C    1.397406   0.000000
    28  H    2.160314   1.090489   0.000000
    29  C    2.418855   1.387619   2.144794   0.000000
    30  H    3.399483   2.142510   2.455977   1.088965   0.000000
    31  H    1.090091   2.163370   2.493821   3.406393   4.296843
                   31
    31  H    0.000000
 Symmetry turned off by external request.
 Stoichiometry    C15H11BF2N2
 Framework group  C1[X(C15H11BF2N2)]
 Deg. of freedom    87
 Full point group                 C1      NOp   1
 Rotational constants (GHZ):           0.5560776           0.2855457           0.2176557
 Leave Link  202 at Mon Jan 31 13:52:44 2022, MaxMem= 49660559360 cpu:               0.5 elap:               0.0
 (Enter /lustre1/prg/gaussian/bin/G16_C01_Linda_AVX2/g16/l301.exe)
 Standard basis: CC-pVDZ (5D, 7F)
 Ernie: Thresh=  0.10000D-02 Tol=  0.10000D-05 Strict=F.
 Ernie:  40 primitive shells out of 495 were deleted.
   335 basis functions,   737 primitive gaussians,   355 cartesian basis functions
    69 alpha electrons       69 beta electrons
       nuclear repulsion energy      1473.2176186076 Hartrees.
 IExCor= 4336 DFT=T Ex+Corr=M062X ExCW=0 ScaHFX=  0.540000
 ScaDFX=  1.000000  1.000000  1.000000  1.000000 ScalE2=  1.000000  1.000000
 IRadAn=      5 IRanWt=     -1 IRanGd=            0 ICorTp=0 IEmpDi=  4
 NAtoms=   31 NActive=   31 NUniq=   31 SFac= 1.00D+00 NAtFMM=   60 NAOKFM=F Big=F
 Integral buffers will be    131072 words long.
 Regular integral format.
 Two-electron integral symmetry is turned off.
 ------------------------------------------------------------------------------
 Polarizable Continuum Model (PCM)
 =================================
 Model                : C-PCM.
 Atomic radii         : UFF (Universal Force Field).
 Polarization charges : Total charges.
 Charge compensation  : None.
 Solution method      : On-the-fly selection.
 Cavity type          : Scaled VdW (van der Waals Surface) (Alpha=1.100).
 Cavity algorithm     : GePol (No added spheres)
                        Default sphere list used, NSphG=   31.
                        Lebedev-Laikov grids with approx.  5.0 points / Ang**2.
                        Smoothing algorithm: York/Karplus (Gamma=1.0000).
                        Polarization charges: spherical gaussians, with
                                              point-specific exponents (IZeta= 3).
                        Self-potential: point-specific (ISelfS= 7).
                        Self-field    : sphere-specific E.n sum rule (ISelfD= 2).
 1st derivatives      : Analytical E(r).r(x)/FMM algorithm (CHGder, D1EAlg=3).
                        Cavity 1st derivative terms included.
 Solvent              : n,n-DiMethylFormamide, Eps=  37.219000 Eps(inf)=   2.046330
 ------------------------------------------------------------------------------
 GePol: Number of generator spheres                  =      31
 GePol: Total number of spheres                      =      31
 GePol: Number of exposed spheres                    =      31 (100.00%)
 GePol: Number of points                             =    2486
 GePol: Average weight of points                     =       0.13
 GePol: Minimum weight of points                     =   0.57D-10
 GePol: Maximum weight of points                     =    0.20577
 GePol: Number of points with low weight             =     173
 GePol: Fraction of low-weight points (<1% of avg)   =       6.96%
 GePol: Cavity surface area                          =    312.036 Ang**2
 GePol: Cavity volume                                =    344.106 Ang**3
 Leave Link  301 at Mon Jan 31 13:52:44 2022, MaxMem= 49660559360 cpu:               3.3 elap:               0.1
Warning: Permanently added 'fizika350.fizika.bullx' (ECDSA) to the list of known hosts.
 (Enter /lustre1/prg/gaussian/bin/G16_C01_Linda_AVX2/g16/linda-exe/l302.exel)
 NPDir=0 NMtPBC=     1 NCelOv=     1 NCel=       1 NClECP=     1 NCelD=      1
         NCelK=      1 NCelE2=     1 NClLst=     1 CellRange=     0.0.
 One-electron integrals computed using PRISM.
 NBasis=   335 RedAO= T EigKep=  3.00D-04  NBF=   335
 NBsUse=   335 1.00D-06 EigRej= -1.00D+00 NBFU=   335
 Precomputing XC quadrature grid using
 IXCGrd= 4 IRadAn=           5 IRanWt=          -1 IRanGd=           0 AccXCQ= 0.00D+00.
 Generated NRdTot=       0 NPtTot=           0 NUsed=           0 NTot=          32
 NSgBfM=   354   354   354   354   354 MxSgAt=    31 MxSgA2=    31.
 Leave Link  302 at Mon Jan 31 13:52:46 2022, MaxMem= 49660559360 cpu:              19.4 elap:               0.6
 (Enter /lustre1/prg/gaussian/bin/G16_C01_Linda_AVX2/g16/l303.exe)
 DipDrv:  MaxL=1.
 Leave Link  303 at Mon Jan 31 13:52:46 2022, MaxMem= 49660559360 cpu:               3.0 elap:               0.1
 (Enter /lustre1/prg/gaussian/bin/G16_C01_Linda_AVX2/g16/l308.exe)
 Leave Link  308 at Mon Jan 31 13:52:46 2022, MaxMem= 49660559360 cpu:               3.5 elap:               0.1
 (Enter /lustre1/prg/gaussian/bin/G16_C01_Linda_AVX2/g16/linda-exe/l401.exel)
 ExpMin= 9.54D-02 ExpMax= 1.47D+04 ExpMxC= 5.03D+02 IAcc=3 IRadAn=         5 AccDes= 0.00D+00
 Harris functional with IExCor= 1009 and IRadAn=       5 diagonalized for initial guess.
 HarFok:  IExCor= 1009 AccDes= 0.00D+00 IRadAn=         5 IDoV= 1 UseB2=F ITyADJ=14
 ICtDFT=  3500011 ScaDFX=  1.000000  1.000000  1.000000  1.000000
 FoFCou: FMM=F IPFlag=           0 FMFlag=      100000 FMFlg1=           0
         NFxFlg=           0 DoJE=T BraDBF=F KetDBF=T FulRan=T
         wScrn=  0.000000 ICntrl=       500 IOpCl=  0 I1Cent=   200000004 NGrid=           0
         NMat0=    1 NMatS0=      1 NMatT0=    0 NMatD0=    1 NMtDS0=    0 NMtDT0=    0
 Symmetry not used in FoFCou.
 Harris En= -911.547355225092    
 JPrj=0 DoOrth=F DoCkMO=F.
 Leave Link  401 at Mon Jan 31 13:52:48 2022, MaxMem= 49660559360 cpu:              37.0 elap:               1.2
 (Enter /lustre1/prg/gaussian/bin/G16_C01_Linda_AVX2/g16/linda-exe/l502.exel)
 Two-electron integral symmetry not used.
 Closed shell SCF:
 Using DIIS extrapolation, IDIIS=  1040.
 NGot= 49660559360 LenX= 49660292335 LenY= 49660165869
 Requested convergence on RMS density matrix=1.00D-08 within 128 cycles.
 Requested convergence on MAX density matrix=1.00D-06.
 Requested convergence on             energy=1.00D-06.
 No special actions if energy rises.
 Fock matrices will be formed incrementally for  20 cycles.

 Cycle   1  Pass 1  IDiag  1:
 FoFJK:  IHMeth= 1 ICntrl=       0 DoSepK=F KAlg= 0 I1Cent=           0 FoldK=F
 IRaf= 880000000 NMat=       1 IRICut=       1 DoRegI=T DoRafI=F ISym2E= 0 IDoP0=0 IntGTp=1.
 FoFCou: FMM=F IPFlag=           0 FMFlag=      100000 FMFlg1=           0
         NFxFlg=           0 DoJE=F BraDBF=F KetDBF=F FulRan=T
         wScrn=  0.000000 ICntrl=         0 IOpCl=  0 I1Cent=           0 NGrid=           0
         NMat0=    1 NMatS0=      1 NMatT0=    0 NMatD0=    1 NMtDS0=    0 NMtDT0=    0
 Symmetry not used in FoFCou.
 Inv3:  Mode=1 IEnd=    18540588.
 Iteration    1 A*A^-1 deviation from unit magnitude is 3.77D-15 for   1955.
 Iteration    1 A*A^-1 deviation from orthogonality  is 2.18D-15 for   1617    348.
 Iteration    1 A^-1*A deviation from unit magnitude is 3.77D-15 for   1955.
 Iteration    1 A^-1*A deviation from orthogonality  is 2.68D-15 for   2188   1124.
 E= -911.841921287472    
 DIIS: error= 3.06D-02 at cycle   1 NSaved=   1.
 NSaved= 1 IEnMin= 1 EnMin= -911.841921287472     IErMin= 1 ErrMin= 3.06D-02
 ErrMax= 3.06D-02  0.00D+00 EMaxC= 1.00D-01 BMatC= 3.37D-01 BMatP= 3.37D-01
 IDIUse=3 WtCom= 6.94D-01 WtEn= 3.06D-01
 Coeff-Com:  0.100D+01
 Coeff-En:   0.100D+01
 Coeff:      0.100D+01
 Gap=     0.138 Goal=   None    Shift=    0.000
 GapD=    0.138 DampG=1.000 DampE=0.500 DampFc=0.5000 IDamp=-1.
 Damping current iteration by 5.00D-01
 RMSDP=3.69D-03 MaxDP=9.92D-02              OVMax= 1.59D-01

 Cycle   2  Pass 1  IDiag  1:
 RMSU=  1.77D-03    CP:  9.73D-01
 E= -912.000060365035     Delta-E=       -0.158139077563 Rises=F Damp=T
 DIIS: error= 7.93D-03 at cycle   2 NSaved=   2.
 NSaved= 2 IEnMin= 2 EnMin= -912.000060365035     IErMin= 2 ErrMin= 7.93D-03
 ErrMax= 7.93D-03  0.00D+00 EMaxC= 1.00D-01 BMatC= 3.00D-02 BMatP= 3.37D-01
 IDIUse=3 WtCom= 9.21D-01 WtEn= 7.93D-02
 Coeff-Com: -0.742D-01 0.107D+01
 Coeff-En:   0.000D+00 0.100D+01
 Coeff:     -0.683D-01 0.107D+01
 Gap=     0.163 Goal=   None    Shift=    0.000
 RMSDP=1.33D-03 MaxDP=7.01D-02 DE=-1.58D-01 OVMax= 1.23D-01

 Cycle   3  Pass 1  IDiag  1:
 RMSU=  1.11D-03    CP:  9.52D-01  1.36D+00
 E= -912.145122203338     Delta-E=       -0.145061838302 Rises=F Damp=F
 DIIS: error= 7.63D-03 at cycle   3 NSaved=   3.
 NSaved= 3 IEnMin= 3 EnMin= -912.145122203338     IErMin= 3 ErrMin= 7.63D-03
 ErrMax= 7.63D-03  0.00D+00 EMaxC= 1.00D-01 BMatC= 1.64D-02 BMatP= 3.00D-02
 IDIUse=3 WtCom= 9.24D-01 WtEn= 7.63D-02
 Coeff-Com: -0.106D+00 0.481D+00 0.625D+00
 Coeff-En:   0.000D+00 0.000D+00 0.100D+01
 Coeff:     -0.975D-01 0.444D+00 0.654D+00
 Gap=     0.147 Goal=   None    Shift=    0.000
 RMSDP=5.02D-04 MaxDP=2.56D-02 DE=-1.45D-01 OVMax= 5.28D-02

 Cycle   4  Pass 1  IDiag  1:
 RMSU=  3.32D-04    CP:  9.55D-01  1.41D+00  6.71D-01
 E= -912.158886981799     Delta-E=       -0.013764778461 Rises=F Damp=F
 DIIS: error= 3.72D-03 at cycle   4 NSaved=   4.
 NSaved= 4 IEnMin= 4 EnMin= -912.158886981799     IErMin= 4 ErrMin= 3.72D-03
 ErrMax= 3.72D-03  0.00D+00 EMaxC= 1.00D-01 BMatC= 2.94D-03 BMatP= 1.64D-02
 IDIUse=3 WtCom= 9.63D-01 WtEn= 3.72D-02
 Coeff-Com: -0.322D-01 0.885D-01 0.335D+00 0.609D+00
 Coeff-En:   0.000D+00 0.000D+00 0.144D+00 0.856D+00
 Coeff:     -0.310D-01 0.852D-01 0.328D+00 0.618D+00
 Gap=     0.150 Goal=   None    Shift=    0.000
 RMSDP=1.66D-04 MaxDP=8.52D-03 DE=-1.38D-02 OVMax= 1.88D-02

 Cycle   5  Pass 1  IDiag  1:
 RMSU=  6.61D-05    CP:  9.54D-01  1.40D+00  7.67D-01  6.75D-01
 E= -912.161869568416     Delta-E=       -0.002982586618 Rises=F Damp=F
 DIIS: error= 3.62D-04 at cycle   5 NSaved=   5.
 NSaved= 5 IEnMin= 5 EnMin= -912.161869568416     IErMin= 5 ErrMin= 3.62D-04
 ErrMax= 3.62D-04  0.00D+00 EMaxC= 1.00D-01 BMatC= 9.07D-05 BMatP= 2.94D-03
 IDIUse=3 WtCom= 9.96D-01 WtEn= 3.62D-03
 Coeff-Com: -0.692D-02 0.998D-02 0.973D-01 0.252D+00 0.648D+00
 Coeff-En:   0.000D+00 0.000D+00 0.000D+00 0.000D+00 0.100D+01
 Coeff:     -0.690D-02 0.994D-02 0.969D-01 0.251D+00 0.649D+00
 Gap=     0.150 Goal=   None    Shift=    0.000
 RMSDP=2.83D-05 MaxDP=1.69D-03 DE=-2.98D-03 OVMax= 2.86D-03

 Cycle   6  Pass 1  IDiag  1:
 RMSU=  2.00D-05    CP:  9.54D-01  1.41D+00  7.68D-01  7.08D-01  7.77D-01
 E= -912.161951503898     Delta-E=       -0.000081935482 Rises=F Damp=F
 DIIS: error= 6.61D-05 at cycle   6 NSaved=   6.
 NSaved= 6 IEnMin= 6 EnMin= -912.161951503898     IErMin= 6 ErrMin= 6.61D-05
 ErrMax= 6.61D-05  0.00D+00 EMaxC= 1.00D-01 BMatC= 4.94D-06 BMatP= 9.07D-05
 IDIUse=1 WtCom= 1.00D+00 WtEn= 0.00D+00
 Coeff-Com: -0.838D-03-0.101D-02 0.166D-01 0.568D-01 0.247D+00 0.682D+00
 Coeff:     -0.838D-03-0.101D-02 0.166D-01 0.568D-01 0.247D+00 0.682D+00
 Gap=     0.150 Goal=   None    Shift=    0.000
 RMSDP=7.05D-06 MaxDP=2.86D-04 DE=-8.19D-05 OVMax= 5.69D-04

 Cycle   7  Pass 1  IDiag  1:
 RMSU=  5.63D-06    CP:  9.54D-01  1.41D+00  7.69D-01  7.11D-01  8.31D-01
                    CP:  9.07D-01
 E= -912.161956619407     Delta-E=       -0.000005115509 Rises=F Damp=F
 DIIS: error= 2.08D-05 at cycle   7 NSaved=   7.
 NSaved= 7 IEnMin= 7 EnMin= -912.161956619407     IErMin= 7 ErrMin= 2.08D-05
 ErrMax= 2.08D-05  0.00D+00 EMaxC= 1.00D-01 BMatC= 2.37D-07 BMatP= 4.94D-06
 IDIUse=1 WtCom= 1.00D+00 WtEn= 0.00D+00
 Coeff-Com:  0.576D-03-0.138D-02-0.664D-02-0.143D-01-0.112D-01 0.110D+00
 Coeff-Com:  0.923D+00
 Coeff:      0.576D-03-0.138D-02-0.664D-02-0.143D-01-0.112D-01 0.110D+00
 Coeff:      0.923D+00
 Gap=     0.150 Goal=   None    Shift=    0.000
 RMSDP=3.22D-06 MaxDP=9.50D-05 DE=-5.12D-06 OVMax= 3.96D-04

 Cycle   8  Pass 1  IDiag  1:
 RMSU=  1.92D-06    CP:  9.54D-01  1.41D+00  7.69D-01  7.14D-01  8.45D-01
                    CP:  1.01D+00  1.08D+00
 E= -912.161957004895     Delta-E=       -0.000000385488 Rises=F Damp=F
 DIIS: error= 1.82D-05 at cycle   8 NSaved=   8.
 NSaved= 8 IEnMin= 8 EnMin= -912.161957004895     IErMin= 8 ErrMin= 1.82D-05
 ErrMax= 1.82D-05  0.00D+00 EMaxC= 1.00D-01 BMatC= 1.02D-07 BMatP= 2.37D-07
 IDIUse=1 WtCom= 1.00D+00 WtEn= 0.00D+00
 Coeff-Com:  0.386D-03-0.595D-03-0.497D-02-0.129D-01-0.299D-01-0.194D-01
 Coeff-Com:  0.470D+00 0.598D+00
 Coeff:      0.386D-03-0.595D-03-0.497D-02-0.129D-01-0.299D-01-0.194D-01
 Coeff:      0.470D+00 0.598D+00
 Gap=     0.150 Goal=   None    Shift=    0.000
 RMSDP=1.17D-06 MaxDP=4.69D-05 DE=-3.85D-07 OVMax= 1.39D-04

 Cycle   9  Pass 1  IDiag  1:
 RMSU=  7.66D-07    CP:  9.54D-01  1.41D+00  7.69D-01  7.14D-01  8.52D-01
                    CP:  1.02D+00  1.17D+00  7.53D-01
 E= -912.161957122876     Delta-E=       -0.000000117982 Rises=F Damp=F
 DIIS: error= 3.36D-06 at cycle   9 NSaved=   9.
 NSaved= 9 IEnMin= 9 EnMin= -912.161957122876     IErMin= 9 ErrMin= 3.36D-06
 ErrMax= 3.36D-06  0.00D+00 EMaxC= 1.00D-01 BMatC= 4.59D-09 BMatP= 1.02D-07
 IDIUse=1 WtCom= 1.00D+00 WtEn= 0.00D+00
 Coeff-Com:  0.590D-04-0.419D-04-0.807D-03-0.245D-02-0.743D-02-0.175D-01
 Coeff-Com:  0.504D-01 0.179D+00 0.798D+00
 Coeff:      0.590D-04-0.419D-04-0.807D-03-0.245D-02-0.743D-02-0.175D-01
 Coeff:      0.504D-01 0.179D+00 0.798D+00
 Gap=     0.150 Goal=   None    Shift=    0.000
 RMSDP=3.90D-07 MaxDP=1.32D-05 DE=-1.18D-07 OVMax= 5.04D-05

 Cycle  10  Pass 1  IDiag  1:
 RMSU=  2.57D-07    CP:  9.54D-01  1.41D+00  7.69D-01  7.14D-01  8.53D-01
                    CP:  1.03D+00  1.20D+00  8.52D-01  9.67D-01
 E= -912.161957130446     Delta-E=       -0.000000007570 Rises=F Damp=F
 DIIS: error= 1.58D-06 at cycle  10 NSaved=  10.
 NSaved=10 IEnMin=10 EnMin= -912.161957130446     IErMin=10 ErrMin= 1.58D-06
 ErrMax= 1.58D-06  0.00D+00 EMaxC= 1.00D-01 BMatC= 1.21D-09 BMatP= 4.59D-09
 IDIUse=1 WtCom= 1.00D+00 WtEn= 0.00D+00
 Coeff-Com: -0.242D-04 0.591D-04 0.294D-03 0.610D-03 0.522D-03-0.643D-02
 Coeff-Com: -0.427D-01-0.857D-02 0.362D+00 0.695D+00
 Coeff:     -0.242D-04 0.591D-04 0.294D-03 0.610D-03 0.522D-03-0.643D-02
 Coeff:     -0.427D-01-0.857D-02 0.362D+00 0.695D+00
 Gap=     0.150 Goal=   None    Shift=    0.000
 RMSDP=1.53D-07 MaxDP=6.09D-06 DE=-7.57D-09 OVMax= 1.80D-05

 Cycle  11  Pass 1  IDiag  1:
 RMSU=  9.47D-08    CP:  9.54D-01  1.41D+00  7.69D-01  7.14D-01  8.53D-01
                    CP:  1.03D+00  1.21D+00  8.76D-01  1.09D+00  9.48D-01
 E= -912.161957132023     Delta-E=       -0.000000001577 Rises=F Damp=F
 DIIS: error= 4.14D-07 at cycle  11 NSaved=  11.
 NSaved=11 IEnMin=11 EnMin= -912.161957132023     IErMin=11 ErrMin= 4.14D-07
 ErrMax= 4.14D-07  0.00D+00 EMaxC= 1.00D-01 BMatC= 1.24D-10 BMatP= 1.21D-09
 IDIUse=1 WtCom= 1.00D+00 WtEn= 0.00D+00
 Coeff-Com: -0.197D-04 0.313D-04 0.251D-03 0.653D-03 0.145D-02 0.770D-04
 Coeff-Com: -0.257D-01-0.346D-01 0.407D-01 0.285D+00 0.732D+00
 Coeff:     -0.197D-04 0.313D-04 0.251D-03 0.653D-03 0.145D-02 0.770D-04
 Coeff:     -0.257D-01-0.346D-01 0.407D-01 0.285D+00 0.732D+00
 Gap=     0.150 Goal=   None    Shift=    0.000
 RMSDP=5.83D-08 MaxDP=1.53D-06 DE=-1.58D-09 OVMax= 1.02D-05

 Cycle  12  Pass 1  IDiag  1:
 RMSU=  3.36D-08    CP:  9.54D-01  1.41D+00  7.69D-01  7.14D-01  8.53D-01
                    CP:  1.03D+00  1.21D+00  8.81D-01  1.13D+00  1.06D+00
                    CP:  9.94D-01
 E= -912.161957132221     Delta-E=       -0.000000000198 Rises=F Damp=F
 DIIS: error= 1.29D-07 at cycle  12 NSaved=  12.
 NSaved=12 IEnMin=12 EnMin= -912.161957132221     IErMin=12 ErrMin= 1.29D-07
 ErrMax= 1.29D-07  0.00D+00 EMaxC= 1.00D-01 BMatC= 6.93D-12 BMatP= 1.24D-10
 IDIUse=1 WtCom= 1.00D+00 WtEn= 0.00D+00
 Coeff-Com: -0.163D-05 0.125D-05 0.222D-04 0.654D-04 0.236D-03 0.595D-03
 Coeff-Com: -0.400D-03-0.596D-02-0.163D-01-0.391D-02 0.130D+00 0.896D+00
 Coeff:     -0.163D-05 0.125D-05 0.222D-04 0.654D-04 0.236D-03 0.595D-03
 Coeff:     -0.400D-03-0.596D-02-0.163D-01-0.391D-02 0.130D+00 0.896D+00
 Gap=     0.150 Goal=   None    Shift=    0.000
 RMSDP=1.97D-08 MaxDP=5.82D-07 DE=-1.98D-10 OVMax= 4.23D-06

 Cycle  13  Pass 1  IDiag  1:
 RMSU=  1.14D-08    CP:  9.54D-01  1.41D+00  7.69D-01  7.14D-01  8.53D-01
                    CP:  1.03D+00  1.21D+00  8.83D-01  1.14D+00  1.09D+00
                    CP:  1.11D+00  1.16D+00
 E= -912.161957132234     Delta-E=       -0.000000000013 Rises=F Damp=F
 DIIS: error= 8.04D-08 at cycle  13 NSaved=  13.
 NSaved=13 IEnMin=13 EnMin= -912.161957132234     IErMin=13 ErrMin= 8.04D-08
 ErrMax= 8.04D-08  0.00D+00 EMaxC= 1.00D-01 BMatC= 1.83D-12 BMatP= 6.93D-12
 IDIUse=1 WtCom= 1.00D+00 WtEn= 0.00D+00
 Coeff-Com:  0.182D-05-0.339D-05-0.227D-04-0.595D-04-0.876D-04 0.206D-03
 Coeff-Com:  0.281D-02 0.127D-02-0.120D-01-0.419D-01-0.514D-01 0.324D+00
 Coeff-Com:  0.777D+00
 Coeff:      0.182D-05-0.339D-05-0.227D-04-0.595D-04-0.876D-04 0.206D-03
 Coeff:      0.281D-02 0.127D-02-0.120D-01-0.419D-01-0.514D-01 0.324D+00
 Coeff:      0.777D+00
 Gap=     0.150 Goal=   None    Shift=    0.000
 RMSDP=9.89D-09 MaxDP=3.52D-07 DE=-1.32D-11 OVMax= 2.39D-06

 Error on total polarization charges =  0.01126
 SCF Done:  E(RM062X) =  -912.161957132     A.U. after   13 cycles
            NFock= 13  Conv=0.99D-08     -V/T= 2.0062
 KE= 9.065160069073D+02 PE=-5.076429130456D+03 EE= 1.784533547809D+03
 Leave Link  502 at Mon Jan 31 13:53:26 2022, MaxMem= 49660559360 cpu:            1131.8 elap:              36.5
 (Enter /lustre1/prg/gaussian/bin/G16_C01_Linda_AVX2/g16/l801.exe)
 DoSCS=F DFT=T ScalE2(SS,OS)=  1.000000  1.000000
 ExpMin= 9.54D-02 ExpMax= 1.47D+04 ExpMxC= 5.03D+02 IAcc=3 IRadAn=         5 AccDes= 0.00D+00
 HarFok:  IExCor=  205 AccDes= 0.00D+00 IRadAn=         5 IDoV=-2 UseB2=F ITyADJ=14
 ICtDFT= 12500011 ScaDFX=  1.000000  1.000000  1.000000  1.000000
 Largest valence mixing into a core orbital is  7.93D-05
 Largest core mixing into a valence orbital is  4.83D-05
 Range of M.O.s used for correlation:    21   335
 NBasis=   335 NAE=    69 NBE=    69 NFC=    20 NFV=     0
 NROrb=    315 NOA=    49 NOB=    49 NVA=   266 NVB=   266

 **** Warning!!: The largest alpha MO coefficient is  0.13482046D+02

 Leave Link  801 at Mon Jan 31 13:53:26 2022, MaxMem= 49660559360 cpu:               4.5 elap:               0.1
 (Enter /lustre1/prg/gaussian/bin/G16_C01_Linda_AVX2/g16/linda-exe/l914.exel)
 RHF ground state
 Keep R1, R2, and R3 ints in memory in canonical form, NReq=5189770173.
 FoFCou: FMM=F IPFlag=           0 FMFlag=           0 FMFlg1=           0
         NFxFlg=           0 DoJE=F BraDBF=F KetDBF=F FulRan=T
         wScrn=  0.000000 ICntrl=       600 IOpCl=  0 I1Cent=           0 NGrid=           0
         NMat0=    1 NMatS0=  56280 NMatT0=    0 NMatD0=    1 NMtDS0=    0 NMtDT0=    0
 Symmetry not used in FoFCou.
 Two-electron integral symmetry not used.
 MDV= 49660559360 DFT=T DoStab=F Mixed=T DoRPA=T DoScal=F NonHer=T
 NEqPCM:  Using equilibrium solvation (IEInf=0, Eps=  37.2190, EpsInf=   2.0463)
 Making orbital integer symmetry assigments:
    24 initial guesses have been made.
 Convergence on wavefunction:    0.000001000000000
 Davidson Disk Diagonalization:  ConvIn= 1.00D-06 SkipCon=T Conv= 1.00D-06.
 Max sub-space:  2000 roots to seek:    24 dimension of matrix:        26068
 Iteration     1 Dimension    24 NMult     0 NNew     24
 CISAX will form    24 AO SS matrices at one time.
 NMat=    24 NSing=    24 JSym2X= 0.
 Excitation Energies [eV] at current iteration:
 Root      1 :     2.333599797427542
 Root      2 :     3.536083562168623
 Root      3 :     3.546155635397437
 Root      4 :     3.998522119879892
 Root      5 :     4.109750362260697
 Root      6 :     5.526018138633683
 Root      7 :     5.605331637454472
 Root      8 :     5.713802883993163
 Root      9 :     5.764063332500693
 Root     10 :     6.083219783033810
 Root     11 :     6.200896103044067
 Root     12 :     6.375886290252872
 Root     13 :     6.804808919815919
 Root     14 :     6.920627609926963
 Root     15 :     6.965837415360935
 Root     16 :     7.071644971944807
 Root     17 :     7.136578048240068
 Root     18 :     7.293628802232790
 Root     19 :     7.334398372102253
 Root     20 :     7.476393282075666
 Root     21 :     7.520389164774381
 Root     22 :     7.701572765600105
 Root     23 :     7.712489592529151
 Root     24 :     8.050941577768581
 Iteration     2 Dimension    36 NMult    24 NNew     12
 CISAX will form    12 AO SS matrices at one time.
 NMat=    12 NSing=    12 JSym2X= 0.
 Root      1 not converged, maximum delta is    0.049828127779978
 Root      2 not converged, maximum delta is    0.032350993887693
 Root      3 not converged, maximum delta is    0.038480286062472
 Root      4 not converged, maximum delta is    0.043563857517153
 Root      5 not converged, maximum delta is    0.052799012345866
 Root      6 not converged, maximum delta is    0.345719506310057
 Excitation Energies [eV] at current iteration:
 Root      1 :     1.916829428338234   Change is   -0.416770369089308
 Root      2 :     3.116916876466632   Change is   -0.419166685701990
 Root      3 :     3.297377087257195   Change is   -0.248778548140242
 Root      4 :     3.735846837239126   Change is   -0.262675282640765
 Root      5 :     3.885895878966302   Change is   -0.223854483294395
 Root      6 :     5.420959529745117   Change is   -0.105058608888566
 Iteration     3 Dimension    48 NMult    36 NNew     12
 CISAX will form    12 AO SS matrices at one time.
 NMat=    12 NSing=    12 JSym2X= 0.
 Root      1 not converged, maximum delta is    0.011543176888192
 Root      2 not converged, maximum delta is    0.013823429093926
 Root      3 not converged, maximum delta is    0.007578101094883
 Root      4 not converged, maximum delta is    0.008798409833420
 Root      5 not converged, maximum delta is    0.021119052139636
 Root      6 not converged, maximum delta is    0.358239310633822
 Excitation Energies [eV] at current iteration:
 Root      1 :     1.896368052707233   Change is   -0.020461375631001
 Root      2 :     3.098210626148194   Change is   -0.018706250318439
 Root      3 :     3.288871185179266   Change is   -0.008505902077929
 Root      4 :     3.726892665227087   Change is   -0.008954172012040
 Root      5 :     3.872955850007336   Change is   -0.012940028958965
 Root      6 :     5.265196392380113   Change is   -0.155763137365004
 Iteration     4 Dimension    60 NMult    48 NNew     12
 CISAX will form    12 AO SS matrices at one time.
 NMat=    12 NSing=    12 JSym2X= 0.
 Root      1 not converged, maximum delta is    0.004067366351680
 Root      2 not converged, maximum delta is    0.004956129502648
 Root      3 not converged, maximum delta is    0.002825666657773
 Root      4 not converged, maximum delta is    0.002623871082669
 Root      5 not converged, maximum delta is    0.005712403295831
 Root      6 not converged, maximum delta is    0.022304779887093
 Excitation Energies [eV] at current iteration:
 Root      1 :     1.895241895693365   Change is   -0.001126157013868
 Root      2 :     3.096140135401572   Change is   -0.002070490746622
 Root      3 :     3.288058085609296   Change is   -0.000813099569970
 Root      4 :     3.725757343397743   Change is   -0.001135321829344
 Root      5 :     3.871121264785987   Change is   -0.001834585221350
 Root      6 :     5.245784541846776   Change is   -0.019411850533337
 Iteration     5 Dimension    72 NMult    60 NNew     12
 CISAX will form    12 AO SS matrices at one time.
 NMat=    12 NSing=    12 JSym2X= 0.
 Root      1 not converged, maximum delta is    0.000521916187357
 Root      2 not converged, maximum delta is    0.000537512753920
 Root      3 not converged, maximum delta is    0.000595570389881
 Root      4 not converged, maximum delta is    0.001385282381194
 Root      5 not converged, maximum delta is    0.000458357025048
 Root      6 not converged, maximum delta is    0.006650980675333
 Excitation Energies [eV] at current iteration:
 Root      1 :     1.895193556698650   Change is   -0.000048338994714
 Root      2 :     3.096030751786101   Change is   -0.000109383615470
 Root      3 :     3.288004801128020   Change is   -0.000053284481276
 Root      4 :     3.725661091941034   Change is   -0.000096251456709
 Root      5 :     3.871074419385278   Change is   -0.000046845400708
 Root      6 :     5.242571357343230   Change is   -0.003213184503545
 Iteration     6 Dimension    84 NMult    72 NNew     12
 CISAX will form    12 AO SS matrices at one time.
 NMat=    12 NSing=    12 JSym2X= 0.
 Root      1 not converged, maximum delta is    0.000046175001184
 Root      2 not converged, maximum delta is    0.000084936269898
 Root      3 not converged, maximum delta is    0.000126299060456
 Root      4 not converged, maximum delta is    0.000177325160171
 Root      5 not converged, maximum delta is    0.000056887176528
 Root      6 not converged, maximum delta is    0.001338073544477
 Excitation Energies [eV] at current iteration:
 Root      1 :     1.895191744905817   Change is   -0.000001811792833
 Root      2 :     3.096025905632490   Change is   -0.000004846153611
 Root      3 :     3.288001503207943   Change is   -0.000003297920077
 Root      4 :     3.725654979030701   Change is   -0.000006112910333
 Root      5 :     3.871073052372364   Change is   -0.000001367012914
 Root      6 :     5.242327698195532   Change is   -0.000243659147699
 Iteration     7 Dimension    96 NMult    84 NNew     12
 CISAX will form    12 AO SS matrices at one time.
 NMat=    12 NSing=    12 JSym2X= 0.
 Root      1 not converged, maximum delta is    0.000009630943979
 Root      2 not converged, maximum delta is    0.000027826070345
 Root      3 not converged, maximum delta is    0.000013979697088
 Root      4 not converged, maximum delta is    0.000023844575555
 Root      5 not converged, maximum delta is    0.000015399510801
 Root      6 not converged, maximum delta is    0.000508092082978
 Excitation Energies [eV] at current iteration:
 Root      1 :     1.895191705600198   Change is   -0.000000039305619
 Root      2 :     3.096025606885189   Change is   -0.000000298747301
 Root      3 :     3.288001375901385   Change is   -0.000000127306558
 Root      4 :     3.725654673419623   Change is   -0.000000305611078
 Root      5 :     3.871072978596046   Change is   -0.000000073776318
 Root      6 :     5.242305466189345   Change is   -0.000022232006187
 Iteration     8 Dimension   108 NMult    96 NNew     12
 CISAX will form    12 AO SS matrices at one time.
 NMat=    12 NSing=    12 JSym2X= 0.
 Root      1 not converged, maximum delta is    0.000001084672939
 Root      2 not converged, maximum delta is    0.000004865707851
 Root      3 not converged, maximum delta is    0.000003649782372
 Root      4 not converged, maximum delta is    0.000003763563369
 Root      5 not converged, maximum delta is    0.000002913659295
 Root      6 not converged, maximum delta is    0.000163323302289
 Excitation Energies [eV] at current iteration:
 Root      1 :     1.895191704639010   Change is   -0.000000000961188
 Root      2 :     3.096025596928338   Change is   -0.000000009956852
 Root      3 :     3.288001372372664   Change is   -0.000000003528721
 Root      4 :     3.725654660528815   Change is   -0.000000012890808
 Root      5 :     3.871072975434461   Change is   -0.000000003161585
 Root      6 :     5.242303421485766   Change is   -0.000002044703579
 Iteration     9 Dimension   120 NMult   108 NNew     12
 CISAX will form    12 AO SS matrices at one time.
 NMat=    12 NSing=    12 JSym2X= 0.
 Root      1 has converged.
 Root      2 has converged.
 Root      3 has converged.
 Root      4 not converged, maximum delta is    0.000002010875960
 Root      5 has converged.
 Root      6 not converged, maximum delta is    0.000050422704177
 Excitation Energies [eV] at current iteration:
 Root      1 :     1.895191704625433   Change is   -0.000000000013577
 Root      2 :     3.096025596525668   Change is   -0.000000000402670
 Root      3 :     3.288001372291606   Change is   -0.000000000081057
 Root      4 :     3.725654659079988   Change is   -0.000000001448827
 Root      5 :     3.871072975344270   Change is   -0.000000000090191
 Root      6 :     5.242303242196451   Change is   -0.000000179289314
 Iteration    10 Dimension   124 NMult   120 NNew      4
 CISAX will form     4 AO SS matrices at one time.
 NMat=     4 NSing=     4 JSym2X= 0.
 Root      1 has converged.
 Root      2 has converged.
 Root      3 has converged.
 Root      4 has converged.
 Root      5 has converged.
 Root      6 not converged, maximum delta is    0.000016505715097
 Excitation Energies [eV] at current iteration:
 Root      1 :     1.895191704625476   Change is    0.000000000000043
 Root      2 :     3.096025596520808   Change is   -0.000000000004859
 Root      3 :     3.288001372291656   Change is    0.000000000000050
 Root      4 :     3.725654659024892   Change is   -0.000000000055097
 Root      5 :     3.871072975344291   Change is    0.000000000000021
 Root      6 :     5.242303229010952   Change is   -0.000000013185499
 Iteration    11 Dimension   126 NMult   124 NNew      2
 CISAX will form     2 AO SS matrices at one time.
 NMat=     2 NSing=     2 JSym2X= 0.
 Root      1 has converged.
 Root      2 has converged.
 Root      3 has converged.
 Root      4 has converged.
 Root      5 has converged.
 Root      6 not converged, maximum delta is    0.000009610570809
 Excitation Energies [eV] at current iteration:
 Root      1 :     1.895191704625303   Change is   -0.000000000000174
 Root      2 :     3.096025596520676   Change is   -0.000000000000133
 Root      3 :     3.288001372291582   Change is   -0.000000000000075
 Root      4 :     3.725654659024847   Change is   -0.000000000000045
 Root      5 :     3.871072975344313   Change is    0.000000000000021
 Root      6 :     5.242303228043338   Change is   -0.000000000967615
 Iteration    12 Dimension   128 NMult   126 NNew      2
 CISAX will form     2 AO SS matrices at one time.
 NMat=     2 NSing=     2 JSym2X= 0.
 Root      1 has converged.
 Root      2 has converged.
 Root      3 has converged.
 Root      4 has converged.
 Root      5 has converged.
 Root      6 not converged, maximum delta is    0.000005383931769
 Excitation Energies [eV] at current iteration:
 Root      1 :     1.895191704625389   Change is    0.000000000000087
 Root      2 :     3.096025596520649   Change is   -0.000000000000026
 Root      3 :     3.288001372291556   Change is   -0.000000000000025
 Root      4 :     3.725654659024803   Change is   -0.000000000000044
 Root      5 :     3.871072975344249   Change is   -0.000000000000063
 Root      6 :     5.242303227917336   Change is   -0.000000000126001
 Iteration    13 Dimension   130 NMult   128 NNew      2
 CISAX will form     2 AO SS matrices at one time.
 NMat=     2 NSing=     2 JSym2X= 0.
 Root      1 has converged.
 Root      2 has converged.
 Root      3 has converged.
 Root      4 has converged.
 Root      5 has converged.
 Root      6 not converged, maximum delta is    0.000002068955149
 Excitation Energies [eV] at current iteration:
 Root      1 :     1.895191704625389   Change is    0.000000000000000
 Root      2 :     3.096025596520623   Change is   -0.000000000000026
 Root      3 :     3.288001372291482   Change is   -0.000000000000075
 Root      4 :     3.725654659024671   Change is   -0.000000000000132
 Root      5 :     3.871072975344270   Change is    0.000000000000021
 Root      6 :     5.242303227891430   Change is   -0.000000000025906
 Iteration    14 Dimension   132 NMult   130 NNew      2
 CISAX will form     2 AO SS matrices at one time.
 NMat=     2 NSing=     2 JSym2X= 0.
 Root      1 has converged.
 Root      2 has converged.
 Root      3 has converged.
 Root      4 has converged.
 Root      5 has converged.
 Root      6 has converged.
 Excitation Energies [eV] at current iteration:
 Root      1 :     1.895191704625260   Change is   -0.000000000000130
 Root      2 :     3.096025596520569   Change is   -0.000000000000053
 Root      3 :     3.288001372291482   Change is    0.000000000000000
 Root      4 :     3.725654659024626   Change is   -0.000000000000045
 Root      5 :     3.871072975344291   Change is    0.000000000000021
 Root      6 :     5.242303227885659   Change is   -0.000000000005770
 Convergence achieved on expansion vectors.
 ***********************************************************************
 Excited states from <AA,BB:AA,BB> singles matrix:
 ***********************************************************************
 
 1PDM for each excited state written to RWF  633
 Ground to excited state transition densities written to RWF  633
 Ground to excited state transition electric dipole moments (Au):
       state          X           Y           Z        Dip. S.      Osc.
         1        -1.5280      0.3460     -2.0108      6.4978      0.3017
         2        -2.4610      0.4978      1.9502     10.1079      0.7667
         3         0.4036     -0.0907      0.5309      0.4530      0.0365
         4         0.3231      0.2751     -0.1994      0.2198      0.0201
         5         0.3962     -0.0897      0.5220      0.4375      0.0415
         6        -0.5948      0.0918      0.4737      0.5866      0.0753
 Ground to excited state transition velocity dipole moments (Au):
       state          X           Y           Z        Dip. S.      Osc.
         1         0.1084     -0.0245      0.1426      0.0327      0.3128
         2         0.2818     -0.0599     -0.2238      0.1331      0.7801
         3        -0.0511      0.0115     -0.0672      0.0073      0.0401
         4        -0.0468     -0.0377      0.0292      0.0045      0.0217
         5        -0.0610      0.0138     -0.0803      0.0104      0.0485
         6         0.1170     -0.0202     -0.0936      0.0229      0.0791
 Ground to excited state transition magnetic dipole moments (Au):
       state          X           Y           Z
         1        -0.0537      1.3673      0.2764
         2         0.1915     -0.0302      0.2496
         3        -0.2984      0.5066      0.3140
         4        -0.1218      0.0229     -0.1618
         5        -0.1757     -1.5229     -0.1276
         6         0.0786     -0.0205      0.1019
 Ground to excited state transition velocity quadrupole moments (Au):
       state          XX          YY          ZZ          XY          XZ          YZ
         1        -0.4002      0.0425      0.3672     -0.0487     -0.1239     -0.1551
         2        -2.9172      0.0586     -1.4778      0.3114      2.8566     -0.3603
         3         0.4571     -0.0396     -0.4218      0.0366      0.1403      0.1519
         4         0.1769      0.0398      0.0659      0.1818     -0.0917     -0.1359
         5         0.9591      0.0182     -0.9831     -0.1487      0.2581      0.0312
         6        -2.1063      0.0062     -1.3431      0.2758      1.5632     -0.1877
 <0|del|b> * <b|rxdel|0> + <0|del|b> * <b|delr+rdel|0>
 Rotatory Strengths (R) in cgs (10**-40 erg-esu-cm/Gauss)
       state          XX          YY          ZZ    R(velocity)    E-M Angle
         1       -20.9665    120.4839    -99.1668      0.1168       90.00
         2       147.4270   -104.8305    -43.1406     -0.1813       90.00
         3       -56.6532    -32.6659     89.1328     -0.0621       90.00
         4        -9.6507      5.1906      5.0086      0.1828       89.55
         5        -5.8739     17.6891    -11.9989     -0.0612       90.00
         6        -6.0992      6.4313     -0.0388      0.0978       90.00
 1/2[<0|r|b>*<b|rxdel|0> + (<0|rxdel|b>*<b|r|0>)*]
 Rotatory Strengths (R) in cgs (10**-40 erg-esu-cm/Gauss)
       state          XX          YY          ZZ     R(length)
         1       -58.0678   -334.5829    393.0986      0.1493
         2       333.3542     10.6154   -344.2910     -0.1071
         3        85.1662     32.4894   -117.8724     -0.0723
         4        27.8327     -4.4457    -22.8253      0.1872
         5        49.2184    -96.5563     47.1170     -0.0736
         6        33.0554      1.3309    -34.1226      0.0879
  1/2[<0|del|b>*<b|r|0> + (<0|r|b>*<b|del|0>)*] (Au)
       state          X           Y           Z        Dip. S.   Osc.(frdel)
         1        -0.1656     -0.0085     -0.2867      0.4608      0.3072
         2        -0.6936     -0.0298     -0.4365      1.1600      0.7733
         3        -0.0206     -0.0010     -0.0357      0.0574      0.0382
         4        -0.0151     -0.0104     -0.0058      0.0313      0.0209
         5        -0.0242     -0.0012     -0.0419      0.0673      0.0449
         6        -0.0696     -0.0019     -0.0443      0.1158      0.0772

 Excitation energies and oscillator strengths:
 
 Excited state symmetry could not be determined.
 Excited State   1:      Singlet-?Sym    1.8952 eV  654.20 nm  f=0.3017  <S**2>=0.000
      69 -> 70         0.70122
 This state for optimization and/or second-order correction.
 Total Energy, E(TD-HF/TD-DFT) =  -912.092310119    
 Copying the excited state density for this state as the 1-particle RhoCI density.
 
 Excited state symmetry could not be determined.
 Excited State   2:      Singlet-?Sym    3.0960 eV  400.46 nm  f=0.7667  <S**2>=0.000
      68 -> 70         0.69972
 
 Excited state symmetry could not be determined.
 Excited State   3:      Singlet-?Sym    3.2880 eV  377.08 nm  f=0.0365  <S**2>=0.000
      67 -> 70         0.70242
 
 Excited state symmetry could not be determined.
 Excited State   4:      Singlet-?Sym    3.7257 eV  332.78 nm  f=0.0201  <S**2>=0.000
      66 -> 70         0.70063
 
 Excited state symmetry could not be determined.
 Excited State   5:      Singlet-?Sym    3.8711 eV  320.28 nm  f=0.0415  <S**2>=0.000
      65 -> 70         0.69494
 
 Excited state symmetry could not be determined.
 Excited State   6:      Singlet-?Sym    5.2423 eV  236.51 nm  f=0.0753  <S**2>=0.000
      64 -> 70         0.68025
 SavETr:  write IOETrn=   770 NScale= 10 NData=  16 NLR=1 NState=    6 LETran=     118.
 The selected state is a singlet.
 CISGrd: IGrad=2 NXY=2 DFT=T
 CISAX will form     1 AO SS matrices at one time.
 NMat=     1 NSing=     1 JSym2X= 0.
 GePol: Maximum number of non-zero 1st derivatives   =     218
 Leave Link  914 at Mon Jan 31 13:57:48 2022, MaxMem= 49660559360 cpu:            7147.4 elap:             260.9
 (Enter /lustre1/prg/gaussian/bin/G16_C01_Linda_AVX2/g16/linda-exe/l1002.exel)
 Minotr:  Closed shell wavefunction.
          Computing CIS/TDA/TD derivatives.
          Using Z-Vector for PSCF gradient.
          Skipping F1 and S1 gradient terms here.
          IDoAtm=1111111111111111111111111111111
 NEqPCM:  Using equilibrium solvation (IEInf=0, Eps=  37.2190, EpsInf=   2.0463)
          Frozen-core window.
          Direct CPHF calculation.
          Differentiating once with respect to electric field.
                with respect to dipole field.
          Differentiating once with respect to nuclear coordinates.
          Requested convergence is 1.0D-10 RMS, and 1.0D-09 maximum.
          NewPWx=F KeepS1=T KeepF1=T KeepIn=T MapXYZ=F SortEE=F KeepMc=T.
 Keep R1 ints in memory in canonical form, NReq=1620843042.
 FoFCou: FMM=F IPFlag=           0 FMFlag=           0 FMFlg1=           0
         NFxFlg=           0 DoJE=F BraDBF=F KetDBF=F FulRan=T
         wScrn=  0.000000 ICntrl=       600 IOpCl=  0 I1Cent=           0 NGrid=           0
         NMat0=    1 NMatS0=  56280 NMatT0=    0 NMatD0=    1 NMtDS0=    0 NMtDT0=    0
 Symmetry not used in FoFCou.
 Two-electron integral symmetry not used.
          MDV=   49660559360 using IRadAn=       5.
          Solving linear equations separately, MaxMat=       0.
          There are     1 degrees of freedom in the 1st order CPHF.  IDoFFX=0 NUNeed=     1.
 LinEq1:  Iter=  0 NonCon=     1 RMS=5.51D-03 Max=4.41D-01 NDo=     1
 AX will form     1 AO Fock derivatives at one time.
 LinEq1:  Iter=  1 NonCon=     1 RMS=2.00D-03 Max=1.34D-01 NDo=     1
 LinEq1:  Iter=  2 NonCon=     1 RMS=1.28D-03 Max=6.66D-02 NDo=     1
 LinEq1:  Iter=  3 NonCon=     1 RMS=4.24D-04 Max=1.29D-02 NDo=     1
 LinEq1:  Iter=  4 NonCon=     1 RMS=2.74D-04 Max=1.33D-02 NDo=     1
 LinEq1:  Iter=  5 NonCon=     1 RMS=1.34D-04 Max=6.00D-03 NDo=     1
 LinEq1:  Iter=  6 NonCon=     1 RMS=7.03D-05 Max=2.44D-03 NDo=     1
 LinEq1:  Iter=  7 NonCon=     1 RMS=3.66D-05 Max=1.13D-03 NDo=     1
 LinEq1:  Iter=  8 NonCon=     1 RMS=1.65D-05 Max=5.10D-04 NDo=     1
 LinEq1:  Iter=  9 NonCon=     1 RMS=6.25D-06 Max=2.12D-04 NDo=     1
 LinEq1:  Iter= 10 NonCon=     1 RMS=3.07D-06 Max=1.62D-04 NDo=     1
 LinEq1:  Iter= 11 NonCon=     1 RMS=1.03D-06 Max=4.45D-05 NDo=     1
 LinEq1:  Iter= 12 NonCon=     1 RMS=4.61D-07 Max=2.49D-05 NDo=     1
 LinEq1:  Iter= 13 NonCon=     1 RMS=2.56D-07 Max=1.91D-05 NDo=     1
 LinEq1:  Iter= 14 NonCon=     1 RMS=1.22D-07 Max=7.44D-06 NDo=     1
 LinEq1:  Iter= 15 NonCon=     1 RMS=3.92D-08 Max=1.33D-06 NDo=     1
 LinEq1:  Iter= 16 NonCon=     1 RMS=1.32D-08 Max=5.27D-07 NDo=     1
 LinEq1:  Iter= 17 NonCon=     1 RMS=6.41D-09 Max=2.62D-07 NDo=     1
 LinEq1:  Iter= 18 NonCon=     1 RMS=1.93D-09 Max=7.70D-08 NDo=     1
 LinEq1:  Iter= 19 NonCon=     1 RMS=1.14D-09 Max=4.17D-08 NDo=     1
 LinEq1:  Iter= 20 NonCon=     1 RMS=4.59D-10 Max=1.48D-08 NDo=     1
 LinEq1:  Iter= 21 NonCon=     1 RMS=1.91D-10 Max=7.64D-09 NDo=     1
 LinEq1:  Iter= 22 NonCon=     1 RMS=7.85D-11 Max=2.92D-09 NDo=     1
 LinEq1:  Iter= 23 NonCon=     0 RMS=2.23D-11 Max=7.48D-10 NDo=     1
 Linear equations converged to 1.000D-10 1.000D-09 after    23 iterations.
 End of Minotr F.D. properties file   721 does not exist.
 End of Minotr F.D. properties file   722 does not exist.
 End of Minotr F.D. properties file   788 does not exist.
 Leave Link 1002 at Mon Jan 31 14:00:17 2022, MaxMem= 49660559360 cpu:            1980.1 elap:             144.5
 (Enter /lustre1/prg/gaussian/bin/G16_C01_Linda_AVX2/g16/l601.exe)
 Copying SCF densities to generalized density rwf, IOpCl= 0 IROHF=0.

 **********************************************************************

            Population analysis using the SCF Density.

 **********************************************************************

 Alpha  occ. eigenvalues --  -25.22125 -25.21495 -14.79772 -14.79765 -10.63838
 Alpha  occ. eigenvalues --  -10.59953 -10.59944 -10.59731 -10.59717 -10.59370
 Alpha  occ. eigenvalues --  -10.58219 -10.58217 -10.58114 -10.57240 -10.57236
 Alpha  occ. eigenvalues --  -10.56725 -10.56712 -10.55250 -10.55240  -7.13455
 Alpha  occ. eigenvalues --   -1.32358  -1.29217  -1.11121  -1.08782  -0.99278
 Alpha  occ. eigenvalues --   -0.93433  -0.89241  -0.87751  -0.86425  -0.85721
 Alpha  occ. eigenvalues --   -0.81935  -0.76807  -0.71056  -0.70307  -0.69683
 Alpha  occ. eigenvalues --   -0.66964  -0.65849  -0.64875  -0.62107  -0.61683
 Alpha  occ. eigenvalues --   -0.60488  -0.58136  -0.57431  -0.54300  -0.54111
 Alpha  occ. eigenvalues --   -0.53188  -0.52331  -0.51783  -0.50587  -0.49883
 Alpha  occ. eigenvalues --   -0.49699  -0.49212  -0.48355  -0.47057  -0.46892
 Alpha  occ. eigenvalues --   -0.46526  -0.45868  -0.45800  -0.44769  -0.44625
 Alpha  occ. eigenvalues --   -0.42980  -0.41801  -0.40974  -0.37717  -0.32910
 Alpha  occ. eigenvalues --   -0.32753  -0.31314  -0.30208  -0.25664
 Alpha virt. eigenvalues --   -0.10640   0.00740   0.01511   0.07255   0.07542
 Alpha virt. eigenvalues --    0.09633   0.10067   0.10622   0.12691   0.12703
[...]
     2  N    0.340452   6.193535   0.489426  -0.025971  -0.053737   0.003657
     3  C   -0.032759   0.489426   4.780289   0.405903   0.461874  -0.041687
     4  H   -0.003193  -0.025971   0.405903   0.593083  -0.039356  -0.003378
     5  C    0.002781  -0.053737   0.461874  -0.039356   4.791541   0.414506
     6  H    0.000179   0.003657  -0.041687  -0.003378   0.414506   0.629716
     7  C    0.004246  -0.079002  -0.053622   0.007061   0.531760  -0.039047
     8  H    0.000231   0.003740   0.009039  -0.000074  -0.040020  -0.005926
     9  C   -0.061495   0.431983  -0.136164   0.002985  -0.053013   0.008870
    10  C   -0.013612  -0.046882   0.008414  -0.000631   0.006893  -0.000237
    11  N    0.340600  -0.037468  -0.000226   0.000201  -0.000176   0.000002
    12  C   -0.032779  -0.000224  -0.000067  -0.000039   0.000018  -0.000000
    13  H   -0.003192   0.000201  -0.000039  -0.000006  -0.000001  -0.000000
    14  C    0.002771  -0.000177   0.000018  -0.000001   0.000003   0.000000
    15  H    0.000179   0.000002  -0.000000  -0.000000   0.000000  -0.000000
    16  C    0.004265   0.000495   0.000031   0.000003  -0.000033  -0.000000
    17  H    0.000232  -0.000010  -0.000001  -0.000000  -0.000001   0.000000
    18  C   -0.061580  -0.005640   0.000479   0.000044  -0.001364   0.000005
    19  F    0.475137  -0.026764  -0.002624  -0.000157  -0.000077   0.000001
    20  F    0.448192  -0.027185   0.008116   0.003995   0.000543   0.000002
    21  C    0.002984   0.003675  -0.000085   0.000016   0.000798  -0.000006
    22  C   -0.000140   0.000044  -0.000039  -0.000002  -0.000204   0.000011
    23  H    0.000004   0.000010  -0.000115   0.000001   0.000926  -0.000000
    24  C   -0.000006  -0.000005   0.000000  -0.000000  -0.000021   0.000000
    25  H    0.000000   0.000000  -0.000000  -0.000000  -0.000001   0.000000
    26  C   -0.000000   0.000000   0.000000   0.000000   0.000000  -0.000000
    27  C   -0.000006   0.000000  -0.000000  -0.000000  -0.000000   0.000000
    28  H    0.000000  -0.000000   0.000000  -0.000000   0.000000  -0.000000
    29  C   -0.000142  -0.000073   0.000006   0.000000   0.000015  -0.000000
    30  H    0.000003  -0.000002   0.000000   0.000000   0.000000  -0.000000
    31  H    0.000000   0.000000  -0.000000   0.000000   0.000000  -0.000000
               7          8          9         10         11         12
     1  B    0.004246   0.000231  -0.061495  -0.013612   0.340600  -0.032779
     2  N   -0.079002   0.003740   0.431983  -0.046882  -0.037468  -0.000224
     3  C   -0.053622   0.009039  -0.136164   0.008414  -0.000226  -0.000067
     4  H    0.007061  -0.000074   0.002985  -0.000631   0.000201  -0.000039
     5  C    0.531760  -0.040020  -0.053013   0.006893  -0.000176   0.000018
     6  H   -0.039047  -0.005926   0.008870  -0.000237   0.000002  -0.000000
     7  C    4.899171   0.419892   0.457766  -0.091539   0.000493   0.000031
     8  H    0.419892   0.630675  -0.043203  -0.006064  -0.000010  -0.000001
     9  C    0.457766  -0.043203   5.071268   0.296676  -0.005645   0.000482
    10  C   -0.091539  -0.006064   0.296676   5.523463  -0.046871   0.008407
    11  N    0.000493  -0.000010  -0.005645  -0.046871   6.193162   0.489357
    12  C    0.000031  -0.000001   0.000482   0.008407   0.489357   4.780367
    13  H    0.000003  -0.000000   0.000044  -0.000631  -0.025977   0.405884
    14  C   -0.000034  -0.000001  -0.001358   0.006890  -0.053756   0.461986
    15  H   -0.000000   0.000000   0.000005  -0.000237   0.003656  -0.041686
    16  C    0.000234   0.000033   0.006137  -0.091486  -0.078968  -0.053610
    17  H    0.000033   0.000002   0.000127  -0.006087   0.003746   0.009043
    18  C    0.006120   0.000123  -0.059771   0.296551   0.431940  -0.136175
    19  F    0.000073   0.000001  -0.001249   0.002602  -0.026763  -0.002622
    20  F   -0.000109   0.000001  -0.002007   0.000344  -0.027157   0.008093
    21  C   -0.014371  -0.001077  -0.040377   0.374720   0.003664  -0.000086
    22  C   -0.004025   0.002678  -0.023690  -0.083896  -0.000073   0.000006
    23  H    0.003727  -0.000646   0.008102  -0.026660  -0.000002   0.000000
    24  C    0.000640   0.000726   0.000332   0.010828   0.000000  -0.000000
    25  H    0.000013   0.000025   0.000041  -0.000429  -0.000000   0.000000
    26  C   -0.000014  -0.000028  -0.000036   0.000605   0.000000   0.000000
    27  C    0.000009  -0.000006  -0.000320   0.010817  -0.000005   0.000000
    28  H   -0.000000  -0.000000   0.000004  -0.000430   0.000000  -0.000000
    29  C   -0.000097  -0.000117   0.013121  -0.083813   0.000044  -0.000039
    30  H   -0.000029  -0.000002   0.000608  -0.026621   0.000003  -0.000116
    31  H    0.000000   0.000000  -0.000000   0.000011   0.000000  -0.000000
              13         14         15         16         17         18
     1  B   -0.003192   0.002771   0.000179   0.004265   0.000232  -0.061580
     2  N    0.000201  -0.000177   0.000002   0.000495  -0.000010  -0.005640
     3  C   -0.000039   0.000018  -0.000000   0.000031  -0.000001   0.000479
     4  H   -0.000006  -0.000001  -0.000000   0.000003  -0.000000   0.000044
     5  C   -0.000001   0.000003   0.000000  -0.000033  -0.000001  -0.001364
     6  H   -0.000000   0.000000  -0.000000  -0.000000   0.000000   0.000005
     7  C    0.000003  -0.000034  -0.000000   0.000234   0.000033   0.006120
     8  H   -0.000000  -0.000001   0.000000   0.000033   0.000002   0.000123
     9  C    0.000044  -0.001358   0.000005   0.006137   0.000127  -0.059771
    10  C   -0.000631   0.006890  -0.000237  -0.091486  -0.006087   0.296551
    11  N   -0.025977  -0.053756   0.003656  -0.078968   0.003746   0.431940
    12  C    0.405884   0.461986  -0.041686  -0.053610   0.009043  -0.136175
    13  H    0.593096  -0.039332  -0.003379   0.007058  -0.000074   0.002992
    14  C   -0.039332   4.791246   0.414508   0.531830  -0.039988  -0.053049
    15  H   -0.003379   0.414508   0.629700  -0.039059  -0.005918   0.008867
    16  C    0.007058   0.531830  -0.039059   4.898984   0.419897   0.457801
    17  H   -0.000074  -0.039988  -0.005918   0.419897   0.630671  -0.043211
    18  C    0.002992  -0.053049   0.008867   0.457801  -0.043211   5.072019
    19  F   -0.000157  -0.000077   0.000001   0.000072   0.000001  -0.001267
    20  F    0.003978   0.000542   0.000002  -0.000109   0.000001  -0.002008
    21  C    0.000016   0.000800  -0.000006  -0.014340  -0.001062  -0.040372
    22  C    0.000000   0.000014  -0.000000  -0.000095  -0.000118   0.013125
    23  H    0.000000   0.000000  -0.000000  -0.000029  -0.000003   0.000610
    24  C   -0.000000  -0.000000   0.000000   0.000009  -0.000006  -0.000319
    25  H   -0.000000   0.000000  -0.000000  -0.000000  -0.000000   0.000004
    26  C    0.000000   0.000000  -0.000000  -0.000014  -0.000028  -0.000037
    27  C   -0.000000  -0.000021   0.000000   0.000635   0.000720   0.000340
    28  H   -0.000000  -0.000001   0.000000   0.000013   0.000025   0.000041
    29  C   -0.000002  -0.000206   0.000011  -0.004054   0.002745  -0.023839
    30  H    0.000001   0.000927  -0.000000   0.003788  -0.000626   0.008005
    31  H    0.000000   0.000000  -0.000000   0.000000   0.000000  -0.000000
              19         20         21         22         23         24
     1  B    0.475137   0.448192   0.002984  -0.000140   0.000004  -0.000006
     2  N   -0.026764  -0.027185   0.003675   0.000044   0.000010  -0.000005
     3  C   -0.002624   0.008116  -0.000085  -0.000039  -0.000115   0.000000
     4  H   -0.000157   0.003995   0.000016  -0.000002   0.000001  -0.000000
     5  C   -0.000077   0.000543   0.000798  -0.000204   0.000926  -0.000021
     6  H    0.000001   0.000002  -0.000006   0.000011  -0.000000   0.000000
     7  C    0.000073  -0.000109  -0.014371  -0.004025   0.003727   0.000640
     8  H    0.000001   0.000001  -0.001077   0.002678  -0.000646   0.000726
     9  C   -0.001249  -0.002007  -0.040377  -0.023690   0.008102   0.000332
    10  C    0.002602   0.000344   0.374720  -0.083896  -0.026660   0.010828
    11  N   -0.026763  -0.027157   0.003664  -0.000073  -0.000002   0.000000
    12  C   -0.002622   0.008093  -0.000086   0.000006   0.000000  -0.000000
    13  H   -0.000157   0.003978   0.000016   0.000000   0.000000  -0.000000
    14  C   -0.000077   0.000542   0.000800   0.000014   0.000000  -0.000000
    15  H    0.000001   0.000002  -0.000006  -0.000000  -0.000000   0.000000
    16  C    0.000072  -0.000109  -0.014340  -0.000095  -0.000029   0.000009
    17  H    0.000001   0.000001  -0.001062  -0.000118  -0.000003  -0.000006
    18  C   -0.001267  -0.002008  -0.040372   0.013125   0.000610  -0.000319
    19  F    8.829490  -0.016521   0.000167  -0.000003   0.000002  -0.000000
    20  F   -0.016521   8.833938  -0.000001  -0.000000  -0.000000   0.000000
    21  C    0.000167  -0.000001   4.856164   0.476852  -0.040116   0.004475
    22  C   -0.000003  -0.000000   0.476852   4.914633   0.395552   0.518857
    23  H    0.000002  -0.000000  -0.040116   0.395552   0.680299  -0.038681
    24  C   -0.000000   0.000000   0.004475   0.518857  -0.038681   4.705465
    25  H   -0.000000  -0.000000   0.008881  -0.031144  -0.013801   0.395182
    26  C    0.000000  -0.000000  -0.066020  -0.020691   0.009400   0.503690
    27  C   -0.000000   0.000000   0.004432  -0.068698  -0.001019  -0.005105
    28  H   -0.000000  -0.000000   0.008865   0.000227   0.000056   0.008217
    29  C   -0.000003  -0.000000   0.476918  -0.061655   0.009941  -0.068726
    30  H    0.000002  -0.000000  -0.039999   0.009943  -0.000075  -0.001015
    31  H    0.000000  -0.000000  -0.000448   0.009641  -0.000195  -0.043450
              25         26         27         28         29         30
     1  B    0.000000  -0.000000  -0.000006   0.000000  -0.000142   0.000003
     2  N    0.000000   0.000000   0.000000  -0.000000  -0.000073  -0.000002
     3  C   -0.000000   0.000000  -0.000000   0.000000   0.000006   0.000000
     4  H   -0.000000   0.000000  -0.000000  -0.000000   0.000000   0.000000
     5  C   -0.000001   0.000000  -0.000000   0.000000   0.000015   0.000000
     6  H    0.000000  -0.000000   0.000000  -0.000000  -0.000000  -0.000000
     7  C    0.000013  -0.000014   0.000009  -0.000000  -0.000097  -0.000029
     8  H    0.000025  -0.000028  -0.000006  -0.000000  -0.000117  -0.000002
     9  C    0.000041  -0.000036  -0.000320   0.000004   0.013121   0.000608
    10  C   -0.000429   0.000605   0.010817  -0.000430  -0.083813  -0.026621
    11  N   -0.000000   0.000000  -0.000005   0.000000   0.000044   0.000003
    12  C    0.000000   0.000000   0.000000  -0.000000  -0.000039  -0.000116
    13  H   -0.000000   0.000000  -0.000000  -0.000000  -0.000002   0.000001
    14  C    0.000000   0.000000  -0.000021  -0.000001  -0.000206   0.000927
    15  H   -0.000000  -0.000000   0.000000   0.000000   0.000011  -0.000000
    16  C   -0.000000  -0.000014   0.000635   0.000013  -0.004054   0.003788
    17  H   -0.000000  -0.000028   0.000720   0.000025   0.002745  -0.000626
    18  C    0.000004  -0.000037   0.000340   0.000041  -0.023839   0.008005
    19  F   -0.000000   0.000000  -0.000000  -0.000000  -0.000003   0.000002
    20  F   -0.000000  -0.000000   0.000000  -0.000000  -0.000000  -0.000000
    21  C    0.008881  -0.066020   0.004432   0.008865   0.476918  -0.039999
    22  C   -0.031144  -0.020691  -0.068698   0.000227  -0.061655   0.009943
    23  H   -0.013801   0.009400  -0.001019   0.000056   0.009941  -0.000075
    24  C    0.395182   0.503690  -0.005105   0.008217  -0.068726  -0.001015
    25  H    0.669552  -0.046768   0.008220  -0.000225   0.000224   0.000055
    26  C   -0.046768   4.772778   0.503640  -0.046752  -0.020657   0.009385
    27  C    0.008220   0.503640   4.705584   0.395189   0.518806  -0.038670
    28  H   -0.000225  -0.046752   0.395189   0.669513  -0.031184  -0.013771
    29  C    0.000224  -0.020657   0.518806  -0.031184   4.914496   0.395618
    30  H    0.000055   0.009385  -0.038670  -0.013771   0.395618   0.679782
    31  H   -0.012059   0.402638  -0.043459  -0.012058   0.009640  -0.000195
              31
     1  B    0.000000
     2  N    0.000000
     3  C   -0.000000
     4  H    0.000000
     5  C    0.000000
     6  H   -0.000000
     7  C    0.000000
     8  H    0.000000
     9  C   -0.000000
    10  C    0.000011
    11  N    0.000000
    12  C   -0.000000
    13  H    0.000000
    14  C    0.000000
    15  H   -0.000000
    16  C    0.000000
    17  H    0.000000
    18  C   -0.000000
    19  F    0.000000
    20  F   -0.000000
    21  C   -0.000448
    22  C    0.009641
    23  H   -0.000195
    24  C   -0.043450
    25  H   -0.012059
    26  C    0.402638
    27  C   -0.043459
    28  H   -0.012058
    29  C    0.009640
    30  H   -0.000195
    31  H    0.668152
 Mulliken charges:
               1
     1  B    0.194778
     2  N   -0.164079
     3  C    0.103834
     4  H    0.059513
     5  C   -0.023653
     6  H    0.033333
     7  C   -0.049384
     8  H    0.030009
     9  C    0.129776
    10  C   -0.021096
    11  N   -0.163769
    12  C    0.103771
    13  H    0.059517
    14  C   -0.023534
    15  H    0.033354
    16  C   -0.049489
    17  H    0.029890
    18  C    0.129565
    19  F   -0.229264
    20  F   -0.232652
    21  C    0.034937
    22  C   -0.047110
    23  H    0.012711
    24  C    0.008914
    25  H    0.022228
    26  C   -0.001090
    27  C    0.008918
    28  H    0.022270
    29  C   -0.046980
    30  H    0.013000
    31  H    0.021781
 Sum of Mulliken charges =  -0.00000
 Mulliken charges with hydrogens summed into heavy atoms:
               1
     1  B    0.194778
     2  N   -0.164079
     3  C    0.163347
     5  C    0.009681
     7  C   -0.019375
     9  C    0.129776
    10  C   -0.021096
    11  N   -0.163769
    12  C    0.163289
    14  C    0.009820
    16  C   -0.019599
    18  C    0.129565
    19  F   -0.229264
    20  F   -0.232652
    21  C    0.034937
    22  C   -0.034399
    24  C    0.031142
    26  C    0.020691
    27  C    0.031188
    29  C   -0.033980
 Electronic spatial extent (au):  <R**2>=           8571.4535
 Charge=              0.0000 electrons
 Dipole moment (field-independent basis, Debye):
    X=             -2.9826    Y=             -4.0412    Z=              1.5715  Tot=              5.2627
 Quadrupole moment (field-independent basis, Debye-Ang):
   XX=            -87.7882   YY=           -123.4745   ZZ=            -88.8628
   XY=             -0.1946   XZ=             -0.2964   YZ=             -6.0432
 Traceless Quadrupole moment (field-independent basis, Debye-Ang):
   XX=             12.2536   YY=            -23.4327   ZZ=             11.1790
   XY=             -0.1946   XZ=             -0.2964   YZ=             -6.0432
 Octapole moment (field-independent basis, Debye-Ang**2):
  XXX=            602.1085  YYY=            -54.8981  ZZZ=           -487.2924  XYY=            268.2705
  XXY=             -8.7261  XXZ=           -137.3023  XZZ=            186.9676  YZZ=            -32.9752
  YYZ=           -203.8931  XYZ=             -9.3983
 Hexadecapole moment (field-independent basis, Debye-Ang**3):
 XXXX=          -5569.3622 YYYY=           -562.5492 ZZZZ=          -4123.9243 XXXY=             49.2285
 XXXZ=           1362.5565 YYYX=            168.3044 YYYZ=             -4.8301 ZZZX=           1411.8235
 ZZZY=            -52.2865 XXYY=          -1265.6689 XXZZ=          -1512.6104 YYZZ=           -912.5178
 XXYZ=             77.7646 YYXZ=            644.6416 ZZXY=             20.4393
 N-N= 1.471791333328D+03 E-N=-5.073353893714D+03  KE= 9.065710117817D+02
 No NMR shielding tensors so no spin-rotation constants.
 Leave Link  601 at Mon Jan 31 15:32:02 2022, MaxMem= 49660559360 cpu:               9.7 elap:               0.4
 (Enter /lustre1/prg/gaussian/bin/G16_C01_Linda_AVX2/g16/l9999.exe)
 Electronic transition elements 
                 1             2             3             4             5 
      1  -0.912093D+03 -0.912049D+03 -0.912042D+03 -0.912026D+03 -0.912022D+03
      2  -0.158183D+01 -0.243294D+01  0.398621D+00  0.413706D+00  0.397467D+00
      3   0.356457D+00  0.470976D+00 -0.895544D-01  0.263481D+00 -0.949410D-01
      4  -0.207747D+01  0.192736D+01  0.536715D+00 -0.263693D+00  0.526002D+00
      5   0.116956D+00  0.283735D+00 -0.513806D-01 -0.599804D-01 -0.612551D-01
      6  -0.263518D-01 -0.580111D-01  0.115391D-01 -0.365818D-01  0.145832D-01
      7   0.153567D+00 -0.225299D+00 -0.690759D-01  0.384497D-01 -0.810829D-01
      8  -0.447477D-01  0.187875D+00 -0.285802D+00 -0.121220D+00 -0.173573D+00
      9   0.143796D+01 -0.351216D-01  0.580105D+00  0.114821D-01 -0.150153D+01
     10   0.280094D+00  0.242146D+00  0.318504D+00 -0.159297D+00 -0.130569D+00
     11  -0.432276D+00 -0.293888D+01  0.466934D+00  0.306901D+00  0.950354D+00
     12   0.437064D-01  0.573954D-01 -0.400685D-01  0.353160D-01  0.162829D-01
     13   0.397020D+00 -0.147716D+01 -0.441873D+00  0.129466D+00 -0.971448D+00
     14  -0.483733D-01  0.299466D+00  0.369418D-01  0.169213D+00 -0.147863D+00
     15  -0.131258D+00  0.289293D+01  0.152245D+00 -0.192239D+00  0.254979D+00
     16  -0.161489D+00 -0.354830D+00  0.154106D+00 -0.125906D+00  0.394221D-01
                 6 
      1  -0.911970D+03
      2  -0.507501D+00
      3   0.780987D-01
      4   0.394902D+00
      5   0.101096D+00
      6  -0.175675D-01
      7  -0.790369D-01
      8   0.653764D-01
      9  -0.728572D-02
     10   0.867233D-01
     11  -0.193902D+01
     12  -0.258306D-03
     13  -0.125875D+01
     14   0.253938D+00
     15   0.138404D+01
     16  -0.164174D+00
 Unable to Open any file for archive entry.
 1\1\VILNIUS-FIZIKA349\FOpt\RM062X TD-FC\CC-pVDZ\C15H11B1F2N2\TOLISTE\3
 1-Jan-2022\0\\#p m062x cc-pvdz scrf=(cpcm,solvent=n,n-DiMethylFormamid
 e) td=(nstate=6,root=1) opt=tight nosymm density=all int=ultrafine fch
 k\\BDP-phenyl, optimized R1 in toluene\\0,1\B,-0.2077356853,0.97652930
 23,0.3426157617\N,-0.0542611188,0.0957228194,1.6094024578\C,1.05977752
 29,-0.4018835195,2.1521177658\H,2.0349570374,-0.1746086554,1.727614941
 6\C,0.7245633933,-1.2037677334,3.2733519093\H,1.4328092934,-1.72704549
 57,3.9092067401\C,-0.6596393546,-1.1895769681,3.3849067577\H,-1.266982
 3005,-1.7375783344,4.0982353716\C,-1.156259278,-0.3493881112,2.3477190
 858\C,-2.4927611369,-0.023274742,1.909376921\N,-1.5060286171,0.4237619
 128,-0.2993872223\C,-1.788438514,0.2415053721,-1.5918387757\H,-1.07734
 90751,0.5295328762,-2.3627266668\C,-3.0725599866,-0.3478643372,-1.7187
 856862\H,-3.560604106,-0.6016008464,-2.6553880978\C,-3.5629775126,-0.5
 363775725,-0.4332269339\H,-4.4963249861,-1.0120466284,-0.1489670034\C,
 -2.5848979801,-0.0276131533,0.4684109644\F,-0.3677966814,2.3168263883,
 0.6947598543\F,0.8727363517,0.7982981728,-0.5094918356\C,-3.6254090795
 ,0.1311973003,2.7957327414\C,-3.4716110107,0.076724446,4.2016590527\H,
 -2.4833785177,-0.0642671637,4.6352317513\C,-4.5600836982,0.2382203255,
 5.0491799603\H,-4.4085584844,0.19106375,6.1280144171\C,-5.8360719786,0
 .4721607541,4.5309093941\C,-6.0013633417,0.5723810688,3.1474530487\H,-
 6.984684046,0.7886659477,2.7286098188\C,-4.9183203995,0.412074188,2.29
 28166955\H,-5.0695208949,0.5360999802,1.2221258516\H,-6.6886348146,0.5
 96131657,5.1987819589\\Version=ES64L-G16RevC.01\HF=-912.1652094\RMSD=5
 .401e-09\RMSF=1.640e-06\Dipole=-1.1734436,-1.5899173,0.6182565\Quadrup
 ole=9.1102642,-17.4216047,8.3113405,-0.1446553,-0.220365,-4.4929923\PG
 =C01 [X(C15H11B1F2N2)]\\@
 The archive entry for this job was punched.


 KNOWLEDGE IS EXPERIMENT'S DAUGHTER.
 -- LEONARDO DA VINCI, IN "PENSIERI" CA. 1492
 Job cpu time:       0 days  0 hours  6 minutes  1.3 seconds.
 Elapsed time:       0 days  1 hours 37 minutes 19.6 seconds.
 File lengths (MBytes):  RWF=    779 Int=      0 D2E=      0 Chk=     37 Scr=      1
 Normal termination of Gaussian 16 at Mon Jan 31 15:32:03 2022.
