 Entering Gaussian System, Link 0=/lustre1/prg/gaussian/bin/G16_C01_Linda9.2_SSE4/g16/g16
 Initial command:
 /lustre1/prg/gaussian/bin/G16_C01_Linda9.2_SSE4/g16/l1.exe "/lustre1/prg/webmo/data/webmo20/toliste/4421/scratch/Gau-1713207.inp" -scrdir="/lustre1/prg/webmo/data/webmo20/toliste/4421/scratch/"
 Default is to use a total of  12 processors:
                               12 via shared-memory
                                1 via Linda
 Entering Link 1 = /lustre1/prg/gaussian/bin/G16_C01_Linda9.2_SSE4/g16/l1.exe PID=   1713208.
  
 Copyright (c) 1988-2019, Gaussian, Inc.  All Rights Reserved.
  
 This is part of the Gaussian(R) 16 program.  It is based on
 the Gaussian(R) 09 system (copyright 2009, Gaussian, Inc.),
 the Gaussian(R) 03 system (copyright 2003, Gaussian, Inc.),
 the Gaussian(R) 98 system (copyright 1998, Gaussian, Inc.),
 the Gaussian(R) 94 system (copyright 1995, Gaussian, Inc.),
 the Gaussian 92(TM) system (copyright 1992, Gaussian, Inc.),
 the Gaussian 90(TM) system (copyright 1990, Gaussian, Inc.),
 the Gaussian 88(TM) system (copyright 1988, Gaussian, Inc.),
 the Gaussian 86(TM) system (copyright 1986, Carnegie Mellon
 University), and the Gaussian 82(TM) system (copyright 1983,
 Carnegie Mellon University). Gaussian is a federally registered
 trademark of Gaussian, Inc.
  
 This software contains proprietary and confidential information,
 including trade secrets, belonging to Gaussian, Inc.
  
 This software is provided under written license and may be
 used, copied, transmitted, or stored only in accord with that
 written license.
  
 The following legend is applicable only to US Government
 contracts under FAR:
  
                    RESTRICTED RIGHTS LEGEND
  
 Use, reproduction and disclosure by the US Government is
 subject to restrictions as set forth in subparagraphs (a)
 and (c) of the Commercial Computer Software - Restricted
 Rights clause in FAR 52.227-19.
  
 Gaussian, Inc.
 340 Quinnipiac St., Bldg. 40, Wallingford CT 06492
  
  
 ---------------------------------------------------------------
 Warning -- This program may not be used in any manner that
 competes with the business of Gaussian, Inc. or will provide
 assistance to any competitor of Gaussian, Inc.  The licensee
 of this program is prohibited from giving any competitor of
 Gaussian, Inc. access to this program.  By using this program,
 the user acknowledges that Gaussian, Inc. is engaged in the
 business of creating and licensing software in the field of
 computational chemistry and represents and warrants to the
 licensee that it is not a competitor of Gaussian, Inc. and that
 it will not use this program in any manner prohibited above.
 ---------------------------------------------------------------
  

 Cite this work as:
 Gaussian 16, Revision C.01,
 M. J. Frisch, G. W. Trucks, H. B. Schlegel, G. E. Scuseria, 
 M. A. Robb, J. R. Cheeseman, G. Scalmani, V. Barone, 
 G. A. Petersson, H. Nakatsuji, X. Li, M. Caricato, A. V. Marenich, 
 J. Bloino, B. G. Janesko, R. Gomperts, B. Mennucci, H. P. Hratchian, 
 J. V. Ortiz, A. F. Izmaylov, J. L. Sonnenberg, D. Williams-Young, 
 F. Ding, F. Lipparini, F. Egidi, J. Goings, B. Peng, A. Petrone, 
 T. Henderson, D. Ranasinghe, V. G. Zakrzewski, J. Gao, N. Rega, 
 G. Zheng, W. Liang, M. Hada, M. Ehara, K. Toyota, R. Fukuda, 
 J. Hasegawa, M. Ishida, T. Nakajima, Y. Honda, O. Kitao, H. Nakai, 
 T. Vreven, K. Throssell, J. A. Montgomery, Jr., J. E. Peralta, 
 F. Ogliaro, M. J. Bearpark, J. J. Heyd, E. N. Brothers, K. N. Kudin, 
 V. N. Staroverov, T. A. Keith, R. Kobayashi, J. Normand, 
 K. Raghavachari, A. P. Rendell, J. C. Burant, S. S. Iyengar, 
 J. Tomasi, M. Cossi, J. M. Millam, M. Klene, C. Adamo, R. Cammi, 
 J. W. Ochterski, R. L. Martin, K. Morokuma, O. Farkas, 
 J. B. Foresman, and D. J. Fox, Gaussian, Inc., Wallingford CT, 2019.
 
 ******************************************
 Gaussian 16:  ES64L-G16RevC.01  3-Jul-2019
                 1-Feb-2022 
 ******************************************
 %LindaWorkers=fizika73,fizika74,fizika75,fizika76,fizika77,fizika78,fizika79,fiz
 ika80
 %chk=bodipy.chk
 SetLPE:  input flags=" -opt "Tsnet.Node.lindarsharg: ssh" "
 SetLPE:    new flags=" -opt "Tsnet.Node.lindarsharg: ssh" -opt 'Tsnet.Node.lindarsharg: ssh'  -nodelist 'fizika73.fizika.bullx fizika74.fizika.bullx fizika75.fizika.bullx fizika76.fizika.bullx fizika77.fizika.bullx fizika78.fizika.bullx fizika79.fizika.bullx fizika80.fizika.bullx' -env GAUSS_MDEF=11408506880 -env GAUSS_EXEDIR="/lustre1/prg/gaussian/bin/G16_C01_Linda9.2_SSE4/g16/bsd:/lustre1/prg/gaussian/bin/G16_C01_Linda9.2_SSE4/g16/private:/lustre1/prg/gaussian/bin/G16_C01_Linda9.2_SSE4/g16""
 Will use up to    8 processors via Linda.
 ----------------------------------------------------------------------
 #p m062x cc-pvdz scrf=(cpcm,solvent=TetraHydroFuran) td=(nstate=6,root
 =1) opt=tight nosymm density=all int=ultrafine fchk
 ----------------------------------------------------------------------
 1/7=10,18=20,19=15,26=6,38=1/1,3;
 2/9=110,12=2,15=1,17=6,18=5,40=1/2;
 3/5=16,11=9,25=1,30=1,70=2101,71=1,72=20,74=-55,75=-5/1,2,3,8;
 4//1;
 5/5=2,38=5,53=20/2;
 8/6=1,10=1,107=1,108=6/1;
 9/8=1,15=2,30=10,41=6,42=1,70=2/14;
 10/5=4,28=1,31=1/2;
 6/7=2,8=2,9=2,10=2,22=-2/1;
 7/12=6,13=5,14=1,30=1/1,2,3,16;
 1/7=10,18=20,19=15,26=6/3(2);
 2/9=110,15=1/2;
 99//99;
 2/9=110,15=1/2;
 3/5=16,11=9,25=1,30=1,70=2105,71=1,72=20,74=-55,75=-5/1,2,3,8;
 4/5=5,16=3,69=1/1;
 5/5=2,38=5,53=20/2;
 8/6=1,10=1,107=1,108=6/1;
 9/8=1,15=2,30=10,41=6,42=1,49=4,70=2/14;
 10/5=4,28=1,31=1/2;
 7/12=6,13=5,14=1,30=1/1,2,3,16;
 1/7=10,18=20,19=15,26=6/3(-8);
 2/9=110,15=1/2;
 6/7=2,8=2,9=2,10=2,22=-2/1;
 99/9=10/99;
 Leave Link    1 at Tue Feb  1 12:19:09 2022, MaxMem=           0 cpu:               1.8 elap:               0.2
 (Enter /lustre1/prg/gaussian/bin/G16_C01_Linda9.2_SSE4/g16/l101.exe)
 -----------------------------------
 BDP-phenyl, optimized R1 in toluene
 -----------------------------------
 Symbolic Z-matrix:
 Charge =  0 Multiplicity = 1
 B                    -0.22646   1.02681   0.36646 
 N                    -0.06346   0.11716   1.6183 
 C                     1.04881  -0.4059    2.13522 
 H                     2.02119  -0.16772   1.71082 
 C                     0.71474  -1.24518   3.22852 
 H                     1.42267  -1.78941   3.84689 
 C                    -0.67094  -1.22985   3.34561 
 H                    -1.28192  -1.79526   4.04248 
 C                    -1.16328  -0.35008   2.3457 
 C                    -2.50187  -0.00928   1.91758 
 N                    -1.51319   0.44742  -0.28853 
 C                    -1.77437   0.23585  -1.57892 
 H                    -1.06149   0.53442  -2.34383 
 C                    -3.03758  -0.39527  -1.70995 
 H                    -3.51184  -0.6718   -2.64717 
 C                    -3.53461  -0.58315  -0.42471 
 H                    -4.45639  -1.08008  -0.13831 
 C                    -2.58533  -0.02833   0.47368 
 F                    -0.42456   2.34713   0.74603 
 F                     0.85674   0.8763   -0.48305 
 C                    -3.6264    0.15309   2.79958 
 C                    -3.46924   0.10032   4.20663 
 H                    -2.47734  -0.03957   4.63367 
 C                    -4.55662   0.26174   5.05338 
 H                    -4.40589   0.21851   6.13251 
 C                    -5.83355   0.49213   4.53442 
 C                    -6.00218   0.58814   3.15055 
 H                    -6.98729   0.80149   2.73438 
 C                    -4.92145   0.42812   2.29504 
 H                    -5.06883   0.54548   1.22249 
 H                    -6.6855    0.61676   5.20297 
 
 ITRead=  0  0  0  0  0  0  0  0  0  0  0  0  0  0  0  0  0  0  0  0
 ITRead=  0  0  0  0  0  0  0  0  0  0  0
 MicOpt= -1 -1 -1 -1 -1 -1 -1 -1 -1 -1 -1 -1 -1 -1 -1 -1 -1 -1 -1 -1
 MicOpt= -1 -1 -1 -1 -1 -1 -1 -1 -1 -1 -1
 NAtoms=     31 NQM=       31 NQMF=       0 NMMI=      0 NMMIF=      0
                NMic=       0 NMicF=      0.
                    Isotopes and Nuclear Properties:
 (Nuclear quadrupole moments (NQMom) in fm**2, nuclear magnetic moments (NMagM)
  in nuclear magnetons)

  Atom         1           2           3           4           5           6           7           8           9          10
 IAtWgt=          11          14          12           1          12           1          12           1          12          12
 AtmWgt=  11.0093053  14.0030740  12.0000000   1.0078250  12.0000000   1.0078250  12.0000000   1.0078250  12.0000000  12.0000000
 NucSpn=           3           2           0           1           0           1           0           1           0           0
 AtZEff=  -0.0000000  -0.0000000  -0.0000000  -0.0000000  -0.0000000  -0.0000000  -0.0000000  -0.0000000  -0.0000000  -0.0000000
 NQMom=    4.0590000   2.0440000   0.0000000   0.0000000   0.0000000   0.0000000   0.0000000   0.0000000   0.0000000   0.0000000
 NMagM=    2.6886370   0.4037610   0.0000000   2.7928460   0.0000000   2.7928460   0.0000000   2.7928460   0.0000000   0.0000000
 AtZNuc=   5.0000000   7.0000000   6.0000000   1.0000000   6.0000000   1.0000000   6.0000000   1.0000000   6.0000000   6.0000000

  Atom        11          12          13          14          15          16          17          18          19          20
 IAtWgt=          14          12           1          12           1          12           1          12          19          19
 AtmWgt=  14.0030740  12.0000000   1.0078250  12.0000000   1.0078250  12.0000000   1.0078250  12.0000000  18.9984033  18.9984033
 NucSpn=           2           0           1           0           1           0           1           0           1           1
 AtZEff=  -0.0000000  -0.0000000  -0.0000000  -0.0000000  -0.0000000  -0.0000000  -0.0000000  -0.0000000  -0.0000000  -0.0000000
 NQMom=    2.0440000   0.0000000   0.0000000   0.0000000   0.0000000   0.0000000   0.0000000   0.0000000   0.0000000   0.0000000
 NMagM=    0.4037610   0.0000000   2.7928460   0.0000000   2.7928460   0.0000000   2.7928460   0.0000000   2.6288670   2.6288670
 AtZNuc=   7.0000000   6.0000000   1.0000000   6.0000000   1.0000000   6.0000000   1.0000000   6.0000000   9.0000000   9.0000000

  Atom        21          22          23          24          25          26          27          28          29          30
 IAtWgt=          12          12           1          12           1          12          12           1          12           1
 AtmWgt=  12.0000000  12.0000000   1.0078250  12.0000000   1.0078250  12.0000000  12.0000000   1.0078250  12.0000000   1.0078250
 NucSpn=           0           0           1           0           1           0           0           1           0           1
 AtZEff=  -0.0000000  -0.0000000  -0.0000000  -0.0000000  -0.0000000  -0.0000000  -0.0000000  -0.0000000  -0.0000000  -0.0000000
 NQMom=    0.0000000   0.0000000   0.0000000   0.0000000   0.0000000   0.0000000   0.0000000   0.0000000   0.0000000   0.0000000
 NMagM=    0.0000000   0.0000000   2.7928460   0.0000000   2.7928460   0.0000000   0.0000000   2.7928460   0.0000000   2.7928460
 AtZNuc=   6.0000000   6.0000000   1.0000000   6.0000000   1.0000000   6.0000000   6.0000000   1.0000000   6.0000000   1.0000000

  Atom        31
 IAtWgt=           1
 AtmWgt=   1.0078250
 NucSpn=           1
 AtZEff=  -0.0000000
 NQMom=    0.0000000
 NMagM=    2.7928460
 AtZNuc=   1.0000000
 Leave Link  101 at Tue Feb  1 12:19:10 2022, MaxMem= 11408506880 cpu:               6.8 elap:               0.6
 (Enter /lustre1/prg/gaussian/bin/G16_C01_Linda9.2_SSE4/g16/l103.exe)

 GradGradGradGradGradGradGradGradGradGradGradGradGradGradGradGradGradGrad
 Berny optimization.
 Initialization pass.
                           ----------------------------
                           !    Initial Parameters    !
                           ! (Angstroms and Degrees)  !
 --------------------------                            --------------------------
 ! Name  Definition              Value          Derivative Info.                !
 --------------------------------------------------------------------------------
 ! R1    R(1,2)                  1.556          estimate D2E/DX2                !
 ! R2    R(1,11)                 1.5558         estimate D2E/DX2                !
 ! R3    R(1,19)                 1.388          estimate D2E/DX2                !
 ! R4    R(1,20)                 1.3848         estimate D2E/DX2                !
 ! R5    R(2,3)                  1.3334         estimate D2E/DX2                !
 ! R6    R(2,9)                  1.3989         estimate D2E/DX2                !
 ! R7    R(3,4)                  1.0874         estimate D2E/DX2                !
 ! R8    R(3,5)                  1.4182         estimate D2E/DX2                !
 ! R9    R(5,6)                  1.0862         estimate D2E/DX2                !
 ! R10   R(5,7)                  1.3907         estimate D2E/DX2                !
 ! R11   R(7,8)                  1.0856         estimate D2E/DX2                !
 ! R12   R(7,9)                  1.4199         estimate D2E/DX2                !
 ! R13   R(9,10)                 1.4461         estimate D2E/DX2                !
 ! R14   R(10,18)                1.4464         estimate D2E/DX2                !
 ! R15   R(10,21)                1.4384         estimate D2E/DX2                !
 ! R16   R(11,12)                1.3335         estimate D2E/DX2                !
 ! R17   R(11,18)                1.3989         estimate D2E/DX2                !
 ! R18   R(12,13)                1.0874         estimate D2E/DX2                !
 ! R19   R(12,14)                1.4182         estimate D2E/DX2                !
 ! R20   R(14,15)                1.0862         estimate D2E/DX2                !
 ! R21   R(14,16)                1.3907         estimate D2E/DX2                !
 ! R22   R(16,17)                1.0857         estimate D2E/DX2                !
 ! R23   R(16,18)                1.4199         estimate D2E/DX2                !
 ! R24   R(21,22)                1.4168         estimate D2E/DX2                !
 ! R25   R(21,29)                1.4168         estimate D2E/DX2                !
 ! R26   R(22,23)                1.0889         estimate D2E/DX2                !
 ! R27   R(22,24)                1.3876         estimate D2E/DX2                !
 ! R28   R(24,25)                1.0905         estimate D2E/DX2                !
 ! R29   R(24,26)                1.3975         estimate D2E/DX2                !
 ! R30   R(26,27)                1.3974         estimate D2E/DX2                !
 ! R31   R(26,31)                1.0901         estimate D2E/DX2                !
 ! R32   R(27,28)                1.0905         estimate D2E/DX2                !
 ! R33   R(27,29)                1.3876         estimate D2E/DX2                !
 ! R34   R(29,30)                1.089          estimate D2E/DX2                !
 ! A1    A(2,1,11)             101.9836         estimate D2E/DX2                !
 ! A2    A(2,1,19)             110.5514         estimate D2E/DX2                !
 ! A3    A(2,1,20)             110.3687         estimate D2E/DX2                !
 ! A4    A(11,1,19)            110.5695         estimate D2E/DX2                !
 ! A5    A(11,1,20)            110.3771         estimate D2E/DX2                !
 ! A6    A(19,1,20)            112.5065         estimate D2E/DX2                !
 ! A7    A(1,2,3)              128.9472         estimate D2E/DX2                !
 ! A8    A(1,2,9)              122.0884         estimate D2E/DX2                !
 ! A9    A(3,2,9)              108.8569         estimate D2E/DX2                !
 ! A10   A(2,3,4)              120.5784         estimate D2E/DX2                !
 ! A11   A(2,3,5)              109.543          estimate D2E/DX2                !
 ! A12   A(4,3,5)              129.8783         estimate D2E/DX2                !
 ! A13   A(3,5,6)              125.5836         estimate D2E/DX2                !
 ! A14   A(3,5,7)              107.0431         estimate D2E/DX2                !
 ! A15   A(6,5,7)              127.3733         estimate D2E/DX2                !
 ! A16   A(5,7,8)              127.5214         estimate D2E/DX2                !
 ! A17   A(5,7,9)              107.0385         estimate D2E/DX2                !
 ! A18   A(8,7,9)              125.4206         estimate D2E/DX2                !
 ! A19   A(2,9,7)              107.488          estimate D2E/DX2                !
 ! A20   A(2,9,10)             119.675          estimate D2E/DX2                !
 ! A21   A(7,9,10)             132.4882         estimate D2E/DX2                !
 ! A22   A(9,10,18)            110.2326         estimate D2E/DX2                !
 ! A23   A(9,10,21)            124.6633         estimate D2E/DX2                !
 ! A24   A(18,10,21)           124.646          estimate D2E/DX2                !
 ! A25   A(1,11,12)            128.9401         estimate D2E/DX2                !
 ! A26   A(1,11,18)            122.0841         estimate D2E/DX2                !
 ! A27   A(12,11,18)           108.8567         estimate D2E/DX2                !
 ! A28   A(11,12,13)           120.5797         estimate D2E/DX2                !
 ! A29   A(11,12,14)           109.5416         estimate D2E/DX2                !
 ! A30   A(13,12,14)           129.8783         estimate D2E/DX2                !
 ! A31   A(12,14,15)           125.5878         estimate D2E/DX2                !
 ! A32   A(12,14,16)           107.0417         estimate D2E/DX2                !
 ! A33   A(15,14,16)           127.3705         estimate D2E/DX2                !
 ! A34   A(14,16,17)           127.5219         estimate D2E/DX2                !
 ! A35   A(14,16,18)           107.0379         estimate D2E/DX2                !
 ! A36   A(17,16,18)           125.4214         estimate D2E/DX2                !
 ! A37   A(10,18,11)           119.6848         estimate D2E/DX2                !
 ! A38   A(10,18,16)           132.4802         estimate D2E/DX2                !
 ! A39   A(11,18,16)           107.4904         estimate D2E/DX2                !
 ! A40   A(10,21,22)           121.2024         estimate D2E/DX2                !
 ! A41   A(10,21,29)           121.2096         estimate D2E/DX2                !
 ! A42   A(22,21,29)           117.5349         estimate D2E/DX2                !
 ! A43   A(21,22,23)           119.6891         estimate D2E/DX2                !
 ! A44   A(21,22,24)           120.9828         estimate D2E/DX2                !
 ! A45   A(23,22,24)           119.3034         estimate D2E/DX2                !
 ! A46   A(22,24,25)           119.4035         estimate D2E/DX2                !
 ! A47   A(22,24,26)           120.571          estimate D2E/DX2                !
 ! A48   A(25,24,26)           120.0219         estimate D2E/DX2                !
 ! A49   A(24,26,27)           119.2974         estimate D2E/DX2                !
 ! A50   A(24,26,31)           120.3456         estimate D2E/DX2                !
 ! A51   A(27,26,31)           120.3443         estimate D2E/DX2                !
 ! A52   A(26,27,28)           120.0258         estimate D2E/DX2                !
 ! A53   A(26,27,29)           120.5743         estimate D2E/DX2                !
 ! A54   A(28,27,29)           119.3964         estimate D2E/DX2                !
 ! A55   A(21,29,27)           120.9797         estimate D2E/DX2                !
 ! A56   A(21,29,30)           119.6945         estimate D2E/DX2                !
 ! A57   A(27,29,30)           119.3008         estimate D2E/DX2                !
 ! D1    D(11,1,2,3)           139.2715         estimate D2E/DX2                !
 ! D2    D(11,1,2,9)           -36.5239         estimate D2E/DX2                !
 ! D3    D(19,1,2,3)          -103.1373         estimate D2E/DX2                !
 ! D4    D(19,1,2,9)            81.0673         estimate D2E/DX2                !
 ! D5    D(20,1,2,3)            21.9809         estimate D2E/DX2                !
 ! D6    D(20,1,2,9)          -153.8145         estimate D2E/DX2                !
 ! D7    D(2,1,11,12)         -139.1822         estimate D2E/DX2                !
 ! D8    D(2,1,11,18)           36.3892         estimate D2E/DX2                !
 ! D9    D(19,1,11,12)         103.2396         estimate D2E/DX2                !
 ! D10   D(19,1,11,18)         -81.189          estimate D2E/DX2                !
 ! D11   D(20,1,11,12)         -21.8977         estimate D2E/DX2                !
 ! D12   D(20,1,11,18)         153.6737         estimate D2E/DX2                !
 ! D13   D(1,2,3,4)              3.712          estimate D2E/DX2                !
 ! D14   D(1,2,3,5)           -176.1031         estimate D2E/DX2                !
 ! D15   D(9,2,3,4)            179.9484         estimate D2E/DX2                !
 ! D16   D(9,2,3,5)              0.1333         estimate D2E/DX2                !
 ! D17   D(1,2,9,7)            175.3782         estimate D2E/DX2                !
 ! D18   D(1,2,9,10)             1.3375         estimate D2E/DX2                !
 ! D19   D(3,2,9,7)             -1.1673         estimate D2E/DX2                !
 ! D20   D(3,2,9,10)          -175.2081         estimate D2E/DX2                !
 ! D21   D(2,3,5,6)           -179.0094         estimate D2E/DX2                !
 ! D22   D(2,3,5,7)              0.9718         estimate D2E/DX2                !
 ! D23   D(4,3,5,6)              1.1981         estimate D2E/DX2                !
 ! D24   D(4,3,5,7)           -178.8207         estimate D2E/DX2                !
 ! D25   D(3,5,7,8)            176.797          estimate D2E/DX2                !
 ! D26   D(3,5,7,9)             -1.6516         estimate D2E/DX2                !
 ! D27   D(6,5,7,8)             -3.2222         estimate D2E/DX2                !
 ! D28   D(6,5,7,9)            178.3291         estimate D2E/DX2                !
 ! D29   D(5,7,9,2)              1.7472         estimate D2E/DX2                !
 ! D30   D(5,7,9,10)           174.7209         estimate D2E/DX2                !
 ! D31   D(8,7,9,2)           -176.7429         estimate D2E/DX2                !
 ! D32   D(8,7,9,10)            -3.7692         estimate D2E/DX2                !
 ! D33   D(2,9,10,18)           38.2167         estimate D2E/DX2                !
 ! D34   D(2,9,10,21)         -149.2588         estimate D2E/DX2                !
 ! D35   D(7,9,10,18)         -134.0662         estimate D2E/DX2                !
 ! D36   D(7,9,10,21)           38.4584         estimate D2E/DX2                !
 ! D37   D(9,10,18,11)         -38.3516         estimate D2E/DX2                !
 ! D38   D(9,10,18,16)         133.9795         estimate D2E/DX2                !
 ! D39   D(21,10,18,11)        149.1223         estimate D2E/DX2                !
 ! D40   D(21,10,18,16)        -38.5466         estimate D2E/DX2                !
 ! D41   D(9,10,21,22)           5.644          estimate D2E/DX2                !
 ! D42   D(9,10,21,29)        -177.0728         estimate D2E/DX2                !
 ! D43   D(18,10,21,22)        177.1106         estimate D2E/DX2                !
 ! D44   D(18,10,21,29)         -5.6062         estimate D2E/DX2                !
 ! D45   D(1,11,12,13)          -3.9072         estimate D2E/DX2                !
 ! D46   D(1,11,12,14)         175.8862         estimate D2E/DX2                !
 ! D47   D(18,11,12,13)       -179.943          estimate D2E/DX2                !
 ! D48   D(18,11,12,14)         -0.1496         estimate D2E/DX2                !
 ! D49   D(1,11,18,10)          -1.0846         estimate D2E/DX2                !
 ! D50   D(1,11,18,16)        -175.1616         estimate D2E/DX2                !
 ! D51   D(12,11,18,10)        175.2767         estimate D2E/DX2                !
 ! D52   D(12,11,18,16)          1.1996         estimate D2E/DX2                !
 ! D53   D(11,12,14,15)        178.9889         estimate D2E/DX2                !
 ! D54   D(11,12,14,16)         -0.9781         estimate D2E/DX2                !
 ! D55   D(13,12,14,15)         -1.2429         estimate D2E/DX2                !
 ! D56   D(13,12,14,16)        178.7901         estimate D2E/DX2                !
 ! D57   D(12,14,16,17)       -176.8002         estimate D2E/DX2                !
 ! D58   D(12,14,16,18)          1.6774         estimate D2E/DX2                !
 ! D59   D(15,14,16,17)          3.2335         estimate D2E/DX2                !
 ! D60   D(15,14,16,18)       -178.2888         estimate D2E/DX2                !
 ! D61   D(14,16,18,10)       -174.8011         estimate D2E/DX2                !
 ! D62   D(14,16,18,11)         -1.7829         estimate D2E/DX2                !
 ! D63   D(17,16,18,10)          3.7173         estimate D2E/DX2                !
 ! D64   D(17,16,18,11)        176.7355         estimate D2E/DX2                !
 ! D65   D(10,21,22,23)          1.615          estimate D2E/DX2                !
 ! D66   D(10,21,22,24)        179.7957         estimate D2E/DX2                !
 ! D67   D(29,21,22,23)       -175.7647         estimate D2E/DX2                !
 ! D68   D(29,21,22,24)          2.4161         estimate D2E/DX2                !
 ! D69   D(10,21,29,27)       -179.7904         estimate D2E/DX2                !
 ! D70   D(10,21,29,30)         -1.6203         estimate D2E/DX2                !
 ! D71   D(22,21,29,27)         -2.411          estimate D2E/DX2                !
 ! D72   D(22,21,29,30)        175.7591         estimate D2E/DX2                !
 ! D73   D(21,22,24,25)       -179.8708         estimate D2E/DX2                !
 ! D74   D(21,22,24,26)         -0.5504         estimate D2E/DX2                !
 ! D75   D(23,22,24,25)         -1.6831         estimate D2E/DX2                !
 ! D76   D(23,22,24,26)        177.6373         estimate D2E/DX2                !
 ! D77   D(22,24,26,27)         -1.3945         estimate D2E/DX2                !
 ! D78   D(22,24,26,31)        179.8982         estimate D2E/DX2                !
 ! D79   D(25,24,26,27)        177.9216         estimate D2E/DX2                !
 ! D80   D(25,24,26,31)         -0.7856         estimate D2E/DX2                !
 ! D81   D(24,26,27,28)       -177.9153         estimate D2E/DX2                !
 ! D82   D(24,26,27,29)          1.3996         estimate D2E/DX2                !
 ! D83   D(31,26,27,28)          0.7919         estimate D2E/DX2                !
 ! D84   D(31,26,27,29)       -179.8932         estimate D2E/DX2                !
 ! D85   D(26,27,29,21)          0.5402         estimate D2E/DX2                !
 ! D86   D(26,27,29,30)       -177.637          estimate D2E/DX2                !
 ! D87   D(28,27,29,21)        179.8594         estimate D2E/DX2                !
 ! D88   D(28,27,29,30)          1.6821         estimate D2E/DX2                !
 --------------------------------------------------------------------------------
 Trust Radius=3.00D-01 FncErr=5.00D-06 GrdErr=5.00D-06 EigMax=2.50D+02 EigMin=1.00D-04
 Number of steps in this run=    186 maximum allowed number of steps=    186.
 GradGradGradGradGradGradGradGradGradGradGradGradGradGradGradGradGradGrad

 Leave Link  103 at Tue Feb  1 12:19:10 2022, MaxMem= 11408506880 cpu:               0.2 elap:               0.0
 (Enter /lustre1/prg/gaussian/bin/G16_C01_Linda9.2_SSE4/g16/l202.exe)
                          Input orientation:                          
 ---------------------------------------------------------------------
 Center     Atomic      Atomic             Coordinates (Angstroms)
 Number     Number       Type             X           Y           Z
 ---------------------------------------------------------------------
      1          5           0       -0.226459    1.026812    0.366463
      2          7           0       -0.063462    0.117158    1.618295
      3          6           0        1.048809   -0.405898    2.135222
      4          1           0        2.021194   -0.167721    1.710815
      5          6           0        0.714744   -1.245178    3.228518
      6          1           0        1.422671   -1.789411    3.846891
      7          6           0       -0.670943   -1.229853    3.345611
      8          1           0       -1.281919   -1.795257    4.042479
      9          6           0       -1.163278   -0.350078    2.345698
     10          6           0       -2.501871   -0.009279    1.917580
     11          7           0       -1.513186    0.447418   -0.288528
     12          6           0       -1.774374    0.235850   -1.578922
     13          1           0       -1.061486    0.534415   -2.343826
     14          6           0       -3.037583   -0.395268   -1.709952
     15          1           0       -3.511843   -0.671799   -2.647172
     16          6           0       -3.534609   -0.583147   -0.424714
     17          1           0       -4.456386   -1.080078   -0.138313
     18          6           0       -2.585327   -0.028326    0.473683
     19          9           0       -0.424564    2.347126    0.746029
     20          9           0        0.856740    0.876303   -0.483047
     21          6           0       -3.626401    0.153085    2.799581
     22          6           0       -3.469244    0.100324    4.206627
     23          1           0       -2.477342   -0.039565    4.633673
     24          6           0       -4.556616    0.261739    5.053379
     25          1           0       -4.405886    0.218510    6.132511
     26          6           0       -5.833553    0.492130    4.534417
     27          6           0       -6.002176    0.588139    3.150548
     28          1           0       -6.987290    0.801491    2.734377
     29          6           0       -4.921445    0.428118    2.295037
     30          1           0       -5.068829    0.545480    1.222494
     31          1           0       -6.685495    0.616763    5.202967
 ---------------------------------------------------------------------
                    Distance matrix (angstroms):
                    1          2          3          4          5
     1  B    0.000000
     2  N    1.555995   0.000000
     3  C    2.609114   1.333397   0.000000
     4  H    2.878565   2.106064   1.087374   0.000000
     5  C    3.773481   2.248195   1.418198   2.274016   0.000000
     6  H    4.771176   3.287892   2.232418   2.747895   1.086156
     7  C    3.763698   2.273124   2.258648   3.323896   1.390710
     8  H    4.753016   3.319433   3.316661   4.358450   2.225260
     9  C    2.586663   1.398935   2.222779   3.252260   2.259987
    10  C    2.942269   2.459959   3.579386   4.530560   3.686817
    11  N    1.555756   2.418004   3.628571   4.107020   4.494237
    12  C    2.608867   3.628154   4.709253   5.039005   5.612542
    13  H    2.878436   4.107135   5.039782   5.141597   6.113343
    14  C    3.773093   4.492795   5.611067   6.111027   6.260255
    15  H    4.770851   5.541479   6.613739   7.061207   7.260615
    16  C    3.763215   4.088175   5.252848   5.966574   5.642818
    17  H    4.752480   4.880249   5.994218   6.797846   6.172795
    18  C    2.586324   2.773284   4.013753   4.771788   4.467697
    19  F    1.388000   2.421570   3.417576   3.638269   4.512806
    20  F    1.384789   2.416342   2.921688   2.694248   4.277448
    21  C    4.271190   3.753833   4.755147   5.760526   4.580902
    22  C    5.110860   4.277744   4.995977   6.037039   4.502536
    23  H    4.940923   3.865732   4.337073   5.366223   3.690173
    24  C    6.426724   5.657662   6.354697   7.390856   5.778248
    25  H    7.167166   6.264588   6.791311   7.810757   6.066004
    26  C    7.006941   6.475980   7.343671   8.372884   6.899551
    27  C    6.426700   6.151256   7.192731   8.186490   6.963056
    28  H    7.167051   7.046513   8.148353   9.118105   7.984633
    29  C    5.110844   4.914741   6.030345   6.992609   5.952977
    30  H    4.940953   5.039228   6.258090   7.142516   6.378111
    31  H    8.079546   7.546575   8.383099   9.413659   7.882183
                    6          7          8          9         10
     6  H    0.000000
     7  C    2.224322   0.000000
     8  H    2.711659   1.085633   0.000000
     9  C    3.318492   1.419938   2.231969   0.000000
    10  C    4.721561   2.623237   3.032028   1.446119   0.000000
    11  N    5.542955   4.090181   4.882694   2.774452   2.460281
    12  C    6.615302   5.255176   5.997337   4.014896   3.579786
    13  H    7.063723   5.969494   6.801533   4.773293   4.530993
    14  C    7.260579   5.644133   6.175175   4.468037   3.687135
    15  H    8.232335   6.655493   7.140459   5.527026   4.721857
    16  C    6.654044   4.778510   5.147780   3.654137   2.623397
    17  H    7.137809   5.146818   5.297900   4.189006   3.032068
    18  C    5.526663   3.654655   4.190134   2.372802   1.446432
    19  F    5.489860   4.428691   5.362926   3.221731   3.352668
    20  F    5.116119   4.629074   5.673754   3.685957   4.222266
    21  C    5.510288   3.308383   3.292025   2.554635   1.438352
    22  C    5.256552   3.215775   2.899062   2.997232   2.487481
    23  H    4.346388   2.517730   2.204768   2.656692   2.716373
    24  C    6.435426   4.498864   3.997098   4.384130   3.758811
    25  H    6.574791   4.879997   4.264113   5.017744   4.630638
    26  C    7.637467   5.570550   5.117765   5.226019   4.266070
    27  C    7.827259   5.636062   5.362550   4.994294   3.758890
    28  H    8.870057   6.663048   6.403553   5.949479   4.630711
    29  C    6.897354   4.681810   4.609024   3.838225   2.487595
    30  H    7.380972   5.196233   5.269920   4.161363   2.716648
    31  H    8.565686   6.560076   6.030191   6.292348   5.356156
                   11         12         13         14         15
    11  N    0.000000
    12  C    1.333453   0.000000
    13  H    2.106146   1.087395   0.000000
    14  C    2.248189   1.418159   2.273998   0.000000
    15  H    3.287929   2.232439   2.747948   1.086174   0.000000
    16  C    2.273051   2.258623   3.323894   1.390744   2.224342
    17  H    3.319373   3.316656   4.358465   2.225313   2.711683
    18  C    1.398851   2.222751   3.252249   2.259965   3.318467
    19  F    2.421631   3.418314   3.638515   4.514470   5.491722
    20  F    2.416263   2.921281   2.694249   4.276440   5.115132
    21  C    3.753495   4.754802   5.760107   4.580752   5.510052
    22  C    4.914576   6.030218   6.992436   5.952970   6.897286
    23  H    5.039327   6.258303   7.142800   6.378242   7.381099
    24  C    6.150847   7.192285   8.185898   6.962885   7.826974
    25  H    7.046265   8.148089   9.117735   7.984560   8.869881
    26  C    6.475212   7.342719   8.371657   6.899063   7.636772
    27  C    5.656684   6.353448   7.389279   5.777574   6.434498
    28  H    6.263317   6.789624   7.808625   6.065021   6.573461
    29  C    4.276846   4.994855   6.035697   4.501870   5.255685
    30  H    3.864635   4.335578   5.364472   3.689201   4.345145
    31  H    7.545726   8.382018   9.412244   7.881619   8.564878
                   16         17         18         19         20
    16  C    0.000000
    17  H    1.085651   0.000000
    18  C    1.419887   2.231946   0.000000
    19  F    4.430521   5.365014   3.222707   0.000000
    20  F    4.627888   5.672352   3.685310   2.305578   0.000000
    21  C    3.308556   3.292535   2.554711   4.391202   5.603324
    22  C    4.681957   4.609371   3.838324   5.127761   6.427233
    23  H    5.196208   5.269832   4.161406   5.002396   6.175414
    24  C    5.636296   5.363225   4.994370   6.322654   7.767504
    25  H    6.663256   6.404070   5.949596   7.028237   8.479005
    26  C    5.570848   5.118870   5.226032   6.859304   8.371532
    27  C    4.499255   3.998627   4.384118   6.323409   7.767289
    28  H    4.880377   4.265926   5.017630   7.029359   8.478574
    29  C    3.216056   2.900367   2.997185   5.128738   6.426978
    30  H    2.518119   2.206654   2.656643   5.004213   6.175005
    31  H    6.560386   6.031374   6.292348   7.877672   9.448991
                   21         22         23         24         25
    21  C    0.000000
    22  C    1.416778   0.000000
    23  H    2.172865   1.088948   0.000000
    24  C    2.440637   1.387596   2.142503   0.000000
    25  H    3.423492   2.144830   2.456094   1.090465   0.000000
    26  C    2.827742   2.418867   3.399515   1.397487   2.160325
    27  C    2.440647   2.787295   3.875323   2.411835   3.402480
    28  H    3.423486   3.877603   4.965313   3.402540   4.307067
    29  C    1.416809   2.422914   3.414906   2.787334   3.877621
    30  H    2.172965   3.414950   4.323682   3.875378   4.965347
    31  H    3.917821   3.406416   4.296907   2.163457   2.493847
                   26         27         28         29         30
    26  C    0.000000
    27  C    1.397406   0.000000
    28  H    2.160314   1.090489   0.000000
    29  C    2.418855   1.387619   2.144794   0.000000
    30  H    3.399483   2.142510   2.455977   1.088965   0.000000
    31  H    1.090091   2.163370   2.493821   3.406393   4.296843
                   31
    31  H    0.000000
 Symmetry turned off by external request.
 Stoichiometry    C15H11BF2N2
 Framework group  C1[X(C15H11BF2N2)]
 Deg. of freedom    87
 Full point group                 C1      NOp   1
 Rotational constants (GHZ):           0.5560776           0.2855457           0.2176557
 Leave Link  202 at Tue Feb  1 12:19:10 2022, MaxMem= 11408506880 cpu:               0.2 elap:               0.0
 (Enter /lustre1/prg/gaussian/bin/G16_C01_Linda9.2_SSE4/g16/l301.exe)
 Standard basis: CC-pVDZ (5D, 7F)
 Ernie: Thresh=  0.10000D-02 Tol=  0.10000D-05 Strict=F.
 Ernie:  40 primitive shells out of 495 were deleted.
   335 basis functions,   737 primitive gaussians,   355 cartesian basis functions
    69 alpha electrons       69 beta electrons
       nuclear repulsion energy      1473.2176186076 Hartrees.
 IExCor= 4336 DFT=T Ex+Corr=M062X ExCW=0 ScaHFX=  0.540000
 ScaDFX=  1.000000  1.000000  1.000000  1.000000 ScalE2=  1.000000  1.000000
 IRadAn=      5 IRanWt=     -1 IRanGd=            0 ICorTp=0 IEmpDi=  4
 NAtoms=   31 NActive=   31 NUniq=   31 SFac= 1.00D+00 NAtFMM=   60 NAOKFM=F Big=F
 Integral buffers will be    131072 words long.
 Regular integral format.
 Two-electron integral symmetry is turned off.
 ------------------------------------------------------------------------------
 Polarizable Continuum Model (PCM)
 =================================
 Model                : C-PCM.
 Atomic radii         : UFF (Universal Force Field).
 Polarization charges : Total charges.
 Charge compensation  : None.
 Solution method      : On-the-fly selection.
 Cavity type          : Scaled VdW (van der Waals Surface) (Alpha=1.100).
 Cavity algorithm     : GePol (No added spheres)
                        Default sphere list used, NSphG=   31.
                        Lebedev-Laikov grids with approx.  5.0 points / Ang**2.
                        Smoothing algorithm: York/Karplus (Gamma=1.0000).
                        Polarization charges: spherical gaussians, with
                                              point-specific exponents (IZeta= 3).
                        Self-potential: point-specific (ISelfS= 7).
                        Self-field    : sphere-specific E.n sum rule (ISelfD= 2).
 1st derivatives      : Analytical E(r).r(x)/FMM algorithm (CHGder, D1EAlg=3).
                        Cavity 1st derivative terms included.
 Solvent              : TetraHydroFuran, Eps=   7.425700 Eps(inf)=   1.974025
 ------------------------------------------------------------------------------
 GePol: Number of generator spheres                  =      31
 GePol: Total number of spheres                      =      31
 GePol: Number of exposed spheres                    =      31 (100.00%)
 GePol: Number of points                             =    2486
 GePol: Average weight of points                     =       0.13
 GePol: Minimum weight of points                     =   0.57D-10
 GePol: Maximum weight of points                     =    0.20577
 GePol: Number of points with low weight             =     173
 GePol: Fraction of low-weight points (<1% of avg)   =       6.96%
 GePol: Cavity surface area                          =    312.036 Ang**2
 GePol: Cavity volume                                =    344.106 Ang**3
 Leave Link  301 at Tue Feb  1 12:19:10 2022, MaxMem= 11408506880 cpu:               1.3 elap:               0.1
@@@@@@@@@@@@@@@@@@@@@@@@@@@@@@@@@@@@@@@@@@@@@@@@@@@@@@@@@@@
@    WARNING: REMOTE HOST IDENTIFICATION HAS CHANGED!     @
@@@@@@@@@@@@@@@@@@@@@@@@@@@@@@@@@@@@@@@@@@@@@@@@@@@@@@@@@@@
IT IS POSSIBLE THAT SOMEONE IS DOING SOMETHING NASTY!
Someone could be eavesdropping on you right now (man-in-the-middle attack)!
It is also possible that a host key has just been changed.
The fingerprint for the ECDSA key sent by the remote host is
SHA256:o8EorsFJYrst8GGL5kkfWBd1g9VHd2QDvyGiBqJHMPw.
Please contact your system administrator.
Add correct host key in /lustre2/home/toliste/.ssh/known_hosts to get rid of this message.
Offending ECDSA key in /lustre2/home/toliste/.ssh/known_hosts:190
Password authentication is disabled to avoid man-in-the-middle attacks.
Keyboard-interactive authentication is disabled to avoid man-in-the-middle attacks.
@@@@@@@@@@@@@@@@@@@@@@@@@@@@@@@@@@@@@@@@@@@@@@@@@@@@@@@@@@@
@    WARNING: REMOTE HOST IDENTIFICATION HAS CHANGED!     @
@@@@@@@@@@@@@@@@@@@@@@@@@@@@@@@@@@@@@@@@@@@@@@@@@@@@@@@@@@@
IT IS POSSIBLE THAT SOMEONE IS DOING SOMETHING NASTY!
Someone could be eavesdropping on you right now (man-in-the-middle attack)!
It is also possible that a host key has just been changed.
The fingerprint for the ECDSA key sent by the remote host is
SHA256:EgvXLyKEWXLzUSC1Gd2C+JUHEXxtfSSTty6rQDUS46Q.
Please contact your system administrator.
Add correct host key in /lustre2/home/toliste/.ssh/known_hosts to get rid of this message.
Offending ECDSA key in /lustre2/home/toliste/.ssh/known_hosts:130
Password authentication is disabled to avoid man-in-the-middle attacks.
Keyboard-interactive authentication is disabled to avoid man-in-the-middle attacks.
@@@@@@@@@@@@@@@@@@@@@@@@@@@@@@@@@@@@@@@@@@@@@@@@@@@@@@@@@@@
@    WARNING: REMOTE HOST IDENTIFICATION HAS CHANGED!     @
@@@@@@@@@@@@@@@@@@@@@@@@@@@@@@@@@@@@@@@@@@@@@@@@@@@@@@@@@@@
IT IS POSSIBLE THAT SOMEONE IS DOING SOMETHING NASTY!
Someone could be eavesdropping on you right now (man-in-the-middle attack)!
It is also possible that a host key has just been changed.
The fingerprint for the ECDSA key sent by the remote host is
SHA256:+L5Si/uL/EZSP12xvq8qMjG7+f8qhNTGOjU6uYoKoR8.
Please contact your system administrator.
Add correct host key in /lustre2/home/toliste/.ssh/known_hosts to get rid of this message.
Offending ECDSA key in /lustre2/home/toliste/.ssh/known_hosts:133
Password authentication is disabled to avoid man-in-the-middle attacks.
Keyboard-interactive authentication is disabled to avoid man-in-the-middle attacks.
@@@@@@@@@@@@@@@@@@@@@@@@@@@@@@@@@@@@@@@@@@@@@@@@@@@@@@@@@@@
@    WARNING: REMOTE HOST IDENTIFICATION HAS CHANGED!     @
@@@@@@@@@@@@@@@@@@@@@@@@@@@@@@@@@@@@@@@@@@@@@@@@@@@@@@@@@@@
IT IS POSSIBLE THAT SOMEONE IS DOING SOMETHING NASTY!
Someone could be eavesdropping on you right now (man-in-the-middle attack)!
It is also possible that a host key has just been changed.
The fingerprint for the ECDSA key sent by the remote host is
SHA256:uZFWxMpnbwANwrBwp/ZOCoF6fxL0zHl17FOTau2Blak.
Please contact your system administrator.
Add correct host key in /lustre2/home/toliste/.ssh/known_hosts to get rid of this message.
Offending ECDSA key in /lustre2/home/toliste/.ssh/known_hosts:189
Password authentication is disabled to avoid man-in-the-middle attacks.
Keyboard-interactive authentication is disabled to avoid man-in-the-middle attacks.
 (Enter /lustre1/prg/gaussian/bin/G16_C01_Linda9.2_SSE4/g16/linda-exe/l302.exel)
 NPDir=0 NMtPBC=     1 NCelOv=     1 NCel=       1 NClECP=     1 NCelD=      1
         NCelK=      1 NCelE2=     1 NClLst=     1 CellRange=     0.0.
 One-electron integrals computed using PRISM.
 NBasis=   335 RedAO= T EigKep=  3.00D-04  NBF=   335
 NBsUse=   335 1.00D-06 EigRej= -1.00D+00 NBFU=   335
 Precomputing XC quadrature grid using
 IXCGrd= 4 IRadAn=           5 IRanWt=          -1 IRanGd=           0 AccXCQ= 0.00D+00.
 Generated NRdTot=       0 NPtTot=           0 NUsed=           0 NTot=          32
 NSgBfM=   354   354   354   354   354 MxSgAt=    31 MxSgA2=    31.
 Leave Link  302 at Tue Feb  1 12:19:14 2022, MaxMem= 11408506880 cpu:              18.2 elap:               1.6
 (Enter /lustre1/prg/gaussian/bin/G16_C01_Linda9.2_SSE4/g16/l303.exe)
 DipDrv:  MaxL=1.
 Leave Link  303 at Tue Feb  1 12:19:15 2022, MaxMem= 11408506880 cpu:               1.4 elap:               0.3
 (Enter /lustre1/prg/gaussian/bin/G16_C01_Linda9.2_SSE4/g16/l308.exe)
 Leave Link  308 at Tue Feb  1 12:19:15 2022, MaxMem= 11408506880 cpu:               2.6 elap:               0.4
@@@@@@@@@@@@@@@@@@@@@@@@@@@@@@@@@@@@@@@@@@@@@@@@@@@@@@@@@@@
@    WARNING: REMOTE HOST IDENTIFICATION HAS CHANGED!     @
@@@@@@@@@@@@@@@@@@@@@@@@@@@@@@@@@@@@@@@@@@@@@@@@@@@@@@@@@@@
IT IS POSSIBLE THAT SOMEONE IS DOING SOMETHING NASTY!
Someone could be eavesdropping on you right now (man-in-the-middle attack)!
It is also possible that a host key has just been changed.
The fingerprint for the ECDSA key sent by the remote host is
SHA256:+L5Si/uL/EZSP12xvq8qMjG7+f8qhNTGOjU6uYoKoR8.
Please contact your system administrator.
Add correct host key in /lustre2/home/toliste/.ssh/known_hosts to get rid of this message.
Offending ECDSA key in /lustre2/home/toliste/.ssh/known_hosts:133
Password authentication is disabled to avoid man-in-the-middle attacks.
Keyboard-interactive authentication is disabled to avoid man-in-the-middle attacks.
@@@@@@@@@@@@@@@@@@@@@@@@@@@@@@@@@@@@@@@@@@@@@@@@@@@@@@@@@@@
@    WARNING: REMOTE HOST IDENTIFICATION HAS CHANGED!     @
@@@@@@@@@@@@@@@@@@@@@@@@@@@@@@@@@@@@@@@@@@@@@@@@@@@@@@@@@@@
IT IS POSSIBLE THAT SOMEONE IS DOING SOMETHING NASTY!
Someone could be eavesdropping on you right now (man-in-the-middle attack)!
It is also possible that a host key has just been changed.
The fingerprint for the ECDSA key sent by the remote host is
SHA256:uZFWxMpnbwANwrBwp/ZOCoF6fxL0zHl17FOTau2Blak.
Please contact your system administrator.
Add correct host key in /lustre2/home/toliste/.ssh/known_hosts to get rid of this message.
Offending ECDSA key in /lustre2/home/toliste/.ssh/known_hosts:189
Password authentication is disabled to avoid man-in-the-middle attacks.
Keyboard-interactive authentication is disabled to avoid man-in-the-middle attacks.
@@@@@@@@@@@@@@@@@@@@@@@@@@@@@@@@@@@@@@@@@@@@@@@@@@@@@@@@@@@
@    WARNING: REMOTE HOST IDENTIFICATION HAS CHANGED!     @
@@@@@@@@@@@@@@@@@@@@@@@@@@@@@@@@@@@@@@@@@@@@@@@@@@@@@@@@@@@
IT IS POSSIBLE THAT SOMEONE IS DOING SOMETHING NASTY!
Someone could be eavesdropping on you right now (man-in-the-middle attack)!
It is also possible that a host key has just been changed.
The fingerprint for the ECDSA key sent by the remote host is
SHA256:EgvXLyKEWXLzUSC1Gd2C+JUHEXxtfSSTty6rQDUS46Q.
Please contact your system administrator.
Add correct host key in /lustre2/home/toliste/.ssh/known_hosts to get rid of this message.
Offending ECDSA key in /lustre2/home/toliste/.ssh/known_hosts:130
Password authentication is disabled to avoid man-in-the-middle attacks.
Keyboard-interactive authentication is disabled to avoid man-in-the-middle attacks.
@@@@@@@@@@@@@@@@@@@@@@@@@@@@@@@@@@@@@@@@@@@@@@@@@@@@@@@@@@@
@    WARNING: REMOTE HOST IDENTIFICATION HAS CHANGED!     @
@@@@@@@@@@@@@@@@@@@@@@@@@@@@@@@@@@@@@@@@@@@@@@@@@@@@@@@@@@@
IT IS POSSIBLE THAT SOMEONE IS DOING SOMETHING NASTY!
Someone could be eavesdropping on you right now (man-in-the-middle attack)!
It is also possible that a host key has just been changed.
The fingerprint for the ECDSA key sent by the remote host is
SHA256:o8EorsFJYrst8GGL5kkfWBd1g9VHd2QDvyGiBqJHMPw.
Please contact your system administrator.
Add correct host key in /lustre2/home/toliste/.ssh/known_hosts to get rid of this message.
Offending ECDSA key in /lustre2/home/toliste/.ssh/known_hosts:190
Password authentication is disabled to avoid man-in-the-middle attacks.
Keyboard-interactive authentication is disabled to avoid man-in-the-middle attacks.
 (Enter /lustre1/prg/gaussian/bin/G16_C01_Linda9.2_SSE4/g16/linda-exe/l401.exel)
 ExpMin= 9.54D-02 ExpMax= 1.47D+04 ExpMxC= 5.03D+02 IAcc=3 IRadAn=         5 AccDes= 0.00D+00
 Harris functional with IExCor= 1009 and IRadAn=       5 diagonalized for initial guess.
 HarFok:  IExCor= 1009 AccDes= 0.00D+00 IRadAn=         5 IDoV= 1 UseB2=F ITyADJ=14
 ICtDFT=  3500011 ScaDFX=  1.000000  1.000000  1.000000  1.000000
 FoFCou: FMM=F IPFlag=           0 FMFlag=      100000 FMFlg1=           0
         NFxFlg=           0 DoJE=T BraDBF=F KetDBF=T FulRan=T
         wScrn=  0.000000 ICntrl=       500 IOpCl=  0 I1Cent=   200000004 NGrid=           0
         NMat0=    1 NMatS0=      1 NMatT0=    0 NMatD0=    1 NMtDS0=    0 NMtDT0=    0
 Symmetry not used in FoFCou.
 Harris En= -911.547355225093    
 JPrj=0 DoOrth=F DoCkMO=F.
 Leave Link  401 at Tue Feb  1 12:19:21 2022, MaxMem= 11408506880 cpu:              39.3 elap:               3.5
@@@@@@@@@@@@@@@@@@@@@@@@@@@@@@@@@@@@@@@@@@@@@@@@@@@@@@@@@@@
@    WARNING: REMOTE HOST IDENTIFICATION HAS CHANGED!     @
@@@@@@@@@@@@@@@@@@@@@@@@@@@@@@@@@@@@@@@@@@@@@@@@@@@@@@@@@@@
IT IS POSSIBLE THAT SOMEONE IS DOING SOMETHING NASTY!
Someone could be eavesdropping on you right now (man-in-the-middle attack)!
It is also possible that a host key has just been changed.
The fingerprint for the ECDSA key sent by the remote host is
SHA256:o8EorsFJYrst8GGL5kkfWBd1g9VHd2QDvyGiBqJHMPw.
Please contact your system administrator.
Add correct host key in /lustre2/home/toliste/.ssh/known_hosts to get rid of this message.
Offending ECDSA key in /lustre2/home/toliste/.ssh/known_hosts:190
Password authentication is disabled to avoid man-in-the-middle attacks.
Keyboard-interactive authentication is disabled to avoid man-in-the-middle attacks.
@@@@@@@@@@@@@@@@@@@@@@@@@@@@@@@@@@@@@@@@@@@@@@@@@@@@@@@@@@@
@    WARNING: REMOTE HOST IDENTIFICATION HAS CHANGED!     @
@@@@@@@@@@@@@@@@@@@@@@@@@@@@@@@@@@@@@@@@@@@@@@@@@@@@@@@@@@@
IT IS POSSIBLE THAT SOMEONE IS DOING SOMETHING NASTY!
Someone could be eavesdropping on you right now (man-in-the-middle attack)!
It is also possible that a host key has just been changed.
The fingerprint for the ECDSA key sent by the remote host is
SHA256:+L5Si/uL/EZSP12xvq8qMjG7+f8qhNTGOjU6uYoKoR8.
Please contact your system administrator.
Add correct host key in /lustre2/home/toliste/.ssh/known_hosts to get rid of this message.
Offending ECDSA key in /lustre2/home/toliste/.ssh/known_hosts:133
Password authentication is disabled to avoid man-in-the-middle attacks.
Keyboard-interactive authentication is disabled to avoid man-in-the-middle attacks.
@@@@@@@@@@@@@@@@@@@@@@@@@@@@@@@@@@@@@@@@@@@@@@@@@@@@@@@@@@@
@    WARNING: REMOTE HOST IDENTIFICATION HAS CHANGED!     @
@@@@@@@@@@@@@@@@@@@@@@@@@@@@@@@@@@@@@@@@@@@@@@@@@@@@@@@@@@@
IT IS POSSIBLE THAT SOMEONE IS DOING SOMETHING NASTY!
Someone could be eavesdropping on you right now (man-in-the-middle attack)!
It is also possible that a host key has just been changed.
The fingerprint for the ECDSA key sent by the remote host is
SHA256:uZFWxMpnbwANwrBwp/ZOCoF6fxL0zHl17FOTau2Blak.
Please contact your system administrator.
Add correct host key in /lustre2/home/toliste/.ssh/known_hosts to get rid of this message.
Offending ECDSA key in /lustre2/home/toliste/.ssh/known_hosts:189
Password authentication is disabled to avoid man-in-the-middle attacks.
Keyboard-interactive authentication is disabled to avoid man-in-the-middle attacks.
@@@@@@@@@@@@@@@@@@@@@@@@@@@@@@@@@@@@@@@@@@@@@@@@@@@@@@@@@@@
@    WARNING: REMOTE HOST IDENTIFICATION HAS CHANGED!     @
@@@@@@@@@@@@@@@@@@@@@@@@@@@@@@@@@@@@@@@@@@@@@@@@@@@@@@@@@@@
IT IS POSSIBLE THAT SOMEONE IS DOING SOMETHING NASTY!
Someone could be eavesdropping on you right now (man-in-the-middle attack)!
It is also possible that a host key has just been changed.
The fingerprint for the ECDSA key sent by the remote host is
SHA256:EgvXLyKEWXLzUSC1Gd2C+JUHEXxtfSSTty6rQDUS46Q.
Please contact your system administrator.
Add correct host key in /lustre2/home/toliste/.ssh/known_hosts to get rid of this message.
Offending ECDSA key in /lustre2/home/toliste/.ssh/known_hosts:130
Password authentication is disabled to avoid man-in-the-middle attacks.
Keyboard-interactive authentication is disabled to avoid man-in-the-middle attacks.
 (Enter /lustre1/prg/gaussian/bin/G16_C01_Linda9.2_SSE4/g16/linda-exe/l502.exel)
 Two-electron integral symmetry not used.
 Closed shell SCF:
 Using DIIS extrapolation, IDIIS=  1040.
 NGot= 11408506880 LenX= 11408246955 LenY= 11408120489
 Requested convergence on RMS density matrix=1.00D-08 within 128 cycles.
 Requested convergence on MAX density matrix=1.00D-06.
 Requested convergence on             energy=1.00D-06.
 No special actions if energy rises.
 Fock matrices will be formed incrementally for  20 cycles.

 Cycle   1  Pass 1  IDiag  1:
 FoFJK:  IHMeth= 1 ICntrl=       0 DoSepK=F KAlg= 0 I1Cent=           0 FoldK=F
 IRaf= 880000000 NMat=       1 IRICut=       1 DoRegI=T DoRafI=F ISym2E= 0 IDoP0=0 IntGTp=1.
 FoFCou: FMM=F IPFlag=           0 FMFlag=      100000 FMFlg1=           0
         NFxFlg=           0 DoJE=F BraDBF=F KetDBF=F FulRan=T
         wScrn=  0.000000 ICntrl=         0 IOpCl=  0 I1Cent=           0 NGrid=           0
         NMat0=    1 NMatS0=      1 NMatT0=    0 NMatD0=    1 NMtDS0=    0 NMtDT0=    0
 Symmetry not used in FoFCou.
 Inv3:  Mode=1 IEnd=    18540588.
 Iteration    1 A*A^-1 deviation from unit magnitude is 1.35D-14 for    490.
 Iteration    1 A*A^-1 deviation from orthogonality  is 4.20D-15 for   2482    829.
 Iteration    1 A^-1*A deviation from unit magnitude is 1.15D-14 for    490.
 Iteration    1 A^-1*A deviation from orthogonality  is 1.73D-15 for   2359   2170.
 E= -911.839943401002    
 DIIS: error= 3.06D-02 at cycle   1 NSaved=   1.
 NSaved= 1 IEnMin= 1 EnMin= -911.839943401002     IErMin= 1 ErrMin= 3.06D-02
 ErrMax= 3.06D-02  0.00D+00 EMaxC= 1.00D-01 BMatC= 3.37D-01 BMatP= 3.37D-01
 IDIUse=3 WtCom= 6.94D-01 WtEn= 3.06D-01
 Coeff-Com:  0.100D+01
 Coeff-En:   0.100D+01
 Coeff:      0.100D+01
 Gap=     0.137 Goal=   None    Shift=    0.000
 GapD=    0.137 DampG=1.000 DampE=0.500 DampFc=0.5000 IDamp=-1.
 Damping current iteration by 5.00D-01
 RMSDP=3.70D-03 MaxDP=9.92D-02              OVMax= 1.59D-01

 Cycle   2  Pass 1  IDiag  1:
 RMSU=  1.78D-03    CP:  9.73D-01
 E= -911.997910365833     Delta-E=       -0.157966964831 Rises=F Damp=T
 DIIS: error= 7.90D-03 at cycle   2 NSaved=   2.
 NSaved= 2 IEnMin= 2 EnMin= -911.997910365833     IErMin= 2 ErrMin= 7.90D-03
 ErrMax= 7.90D-03  0.00D+00 EMaxC= 1.00D-01 BMatC= 3.01D-02 BMatP= 3.37D-01
 IDIUse=3 WtCom= 9.21D-01 WtEn= 7.90D-02
 Coeff-Com: -0.720D-01 0.107D+01
 Coeff-En:   0.000D+00 0.100D+01
 Coeff:     -0.663D-01 0.107D+01
 Gap=     0.162 Goal=   None    Shift=    0.000
 RMSDP=1.34D-03 MaxDP=7.09D-02 DE=-1.58D-01 OVMax= 1.24D-01

 Cycle   3  Pass 1  IDiag  1:
 RMSU=  1.12D-03    CP:  9.52D-01  1.35D+00
 E= -912.142629144189     Delta-E=       -0.144718778356 Rises=F Damp=F
 DIIS: error= 8.00D-03 at cycle   3 NSaved=   3.
 NSaved= 3 IEnMin= 3 EnMin= -912.142629144189     IErMin= 2 ErrMin= 7.90D-03
 ErrMax= 8.00D-03  0.00D+00 EMaxC= 1.00D-01 BMatC= 1.71D-02 BMatP= 3.01D-02
 IDIUse=3 WtCom= 9.20D-01 WtEn= 8.00D-02
 Coeff-Com: -0.106D+00 0.486D+00 0.620D+00
 Coeff-En:   0.000D+00 0.000D+00 0.100D+01
 Coeff:     -0.971D-01 0.447D+00 0.650D+00
 Gap=     0.146 Goal=   None    Shift=    0.000
 RMSDP=5.19D-04 MaxDP=2.62D-02 DE=-1.45D-01 OVMax= 5.42D-02

 Cycle   4  Pass 1  IDiag  1:
 RMSU=  3.42D-04    CP:  9.55D-01  1.41D+00  6.64D-01
 E= -912.156893112633     Delta-E=       -0.014263968444 Rises=F Damp=F
 DIIS: error= 3.98D-03 at cycle   4 NSaved=   4.
 NSaved= 4 IEnMin= 4 EnMin= -912.156893112633     IErMin= 4 ErrMin= 3.98D-03
 ErrMax= 3.98D-03  0.00D+00 EMaxC= 1.00D-01 BMatC= 3.19D-03 BMatP= 1.71D-02
 IDIUse=3 WtCom= 9.60D-01 WtEn= 3.98D-02
 Coeff-Com: -0.324D-01 0.901D-01 0.338D+00 0.604D+00
 Coeff-En:   0.000D+00 0.000D+00 0.154D+00 0.846D+00
 Coeff:     -0.311D-01 0.865D-01 0.331D+00 0.614D+00
 Gap=     0.149 Goal=   None    Shift=    0.000
 RMSDP=1.75D-04 MaxDP=8.75D-03 DE=-1.43D-02 OVMax= 1.97D-02

 Cycle   5  Pass 1  IDiag  1:
 RMSU=  6.85D-05    CP:  9.54D-01  1.40D+00  7.63D-01  6.66D-01
 E= -912.160136714621     Delta-E=       -0.003243601989 Rises=F Damp=F
 DIIS: error= 3.76D-04 at cycle   5 NSaved=   5.
 NSaved= 5 IEnMin= 5 EnMin= -912.160136714621     IErMin= 5 ErrMin= 3.76D-04
 ErrMax= 3.76D-04  0.00D+00 EMaxC= 1.00D-01 BMatC= 9.63D-05 BMatP= 3.19D-03
 IDIUse=3 WtCom= 9.96D-01 WtEn= 3.76D-03
 Coeff-Com: -0.695D-02 0.102D-01 0.989D-01 0.251D+00 0.647D+00
 Coeff-En:   0.000D+00 0.000D+00 0.000D+00 0.000D+00 0.100D+01
 Coeff:     -0.693D-02 0.101D-01 0.985D-01 0.250D+00 0.648D+00
 Gap=     0.149 Goal=   None    Shift=    0.000
 RMSDP=2.99D-05 MaxDP=1.75D-03 DE=-3.24D-03 OVMax= 3.04D-03

 Cycle   6  Pass 1  IDiag  1:
 RMSU=  2.09D-05    CP:  9.54D-01  1.40D+00  7.64D-01  7.01D-01  7.69D-01
 E= -912.160224547601     Delta-E=       -0.000087832979 Rises=F Damp=F
 DIIS: error= 7.47D-05 at cycle   6 NSaved=   6.
 NSaved= 6 IEnMin= 6 EnMin= -912.160224547601     IErMin= 6 ErrMin= 7.47D-05
 ErrMax= 7.47D-05  0.00D+00 EMaxC= 1.00D-01 BMatC= 5.51D-06 BMatP= 9.63D-05
 IDIUse=1 WtCom= 1.00D+00 WtEn= 0.00D+00
 Coeff-Com: -0.863D-03-0.102D-02 0.176D-01 0.588D-01 0.252D+00 0.673D+00
 Coeff:     -0.863D-03-0.102D-02 0.176D-01 0.588D-01 0.252D+00 0.673D+00
 Gap=     0.149 Goal=   None    Shift=    0.000
 RMSDP=7.51D-06 MaxDP=3.01D-04 DE=-8.78D-05 OVMax= 6.52D-04

 Cycle   7  Pass 1  IDiag  1:
 RMSU=  5.89D-06    CP:  9.54D-01  1.40D+00  7.65D-01  7.04D-01  8.25D-01
                    CP:  8.90D-01
 E= -912.160230243856     Delta-E=       -0.000005696255 Rises=F Damp=F
 DIIS: error= 2.87D-05 at cycle   7 NSaved=   7.
 NSaved= 7 IEnMin= 7 EnMin= -912.160230243856     IErMin= 7 ErrMin= 2.87D-05
 ErrMax= 2.87D-05  0.00D+00 EMaxC= 1.00D-01 BMatC= 3.25D-07 BMatP= 5.51D-06
 IDIUse=1 WtCom= 1.00D+00 WtEn= 0.00D+00
 Coeff-Com:  0.516D-03-0.144D-02-0.551D-02-0.104D-01 0.496D-02 0.150D+00
 Coeff-Com:  0.862D+00
 Coeff:      0.516D-03-0.144D-02-0.551D-02-0.104D-01 0.496D-02 0.150D+00
 Coeff:      0.862D+00
 Gap=     0.150 Goal=   None    Shift=    0.000
 RMSDP=3.44D-06 MaxDP=1.17D-04 DE=-5.70D-06 OVMax= 4.08D-04

 Cycle   8  Pass 1  IDiag  1:
 RMSU=  2.25D-06    CP:  9.54D-01  1.40D+00  7.65D-01  7.07D-01  8.35D-01
                    CP:  9.93D-01  1.05D+00
 E= -912.160230694874     Delta-E=       -0.000000451018 Rises=F Damp=F
 DIIS: error= 2.36D-05 at cycle   8 NSaved=   8.
 NSaved= 8 IEnMin= 8 EnMin= -912.160230694874     IErMin= 8 ErrMin= 2.36D-05
 ErrMax= 2.36D-05  0.00D+00 EMaxC= 1.00D-01 BMatC= 1.49D-07 BMatP= 3.25D-07
 IDIUse=1 WtCom= 1.00D+00 WtEn= 0.00D+00
 Coeff-Com:  0.412D-03-0.646D-03-0.533D-02-0.137D-01-0.314D-01-0.199D-01
 Coeff-Com:  0.464D+00 0.606D+00
 Coeff:      0.412D-03-0.646D-03-0.533D-02-0.137D-01-0.314D-01-0.199D-01
 Coeff:      0.464D+00 0.606D+00
 Gap=     0.150 Goal=   None    Shift=    0.000
 RMSDP=1.44D-06 MaxDP=6.48D-05 DE=-4.51D-07 OVMax= 1.62D-04

 Cycle   9  Pass 1  IDiag  1:
 RMSU=  8.67D-07    CP:  9.54D-01  1.40D+00  7.65D-01  7.07D-01  8.44D-01
                    CP:  1.01D+00  1.17D+00  7.47D-01
 E= -912.160230870455     Delta-E=       -0.000000175581 Rises=F Damp=F
 DIIS: error= 3.43D-06 at cycle   9 NSaved=   9.
 NSaved= 9 IEnMin= 9 EnMin= -912.160230870455     IErMin= 9 ErrMin= 3.43D-06
 ErrMax= 3.43D-06  0.00D+00 EMaxC= 1.00D-01 BMatC= 5.45D-09 BMatP= 1.49D-07
 IDIUse=1 WtCom= 1.00D+00 WtEn= 0.00D+00
 Coeff-Com:  0.740D-04-0.599D-04-0.101D-02-0.303D-02-0.877D-02-0.191D-01
 Coeff-Com:  0.618D-01 0.173D+00 0.798D+00
 Coeff:      0.740D-04-0.599D-04-0.101D-02-0.303D-02-0.877D-02-0.191D-01
 Coeff:      0.618D-01 0.173D+00 0.798D+00
 Gap=     0.150 Goal=   None    Shift=    0.000
 RMSDP=4.32D-07 MaxDP=1.47D-05 DE=-1.76D-07 OVMax= 6.47D-05

 Cycle  10  Pass 1  IDiag  1:
 RMSU=  2.90D-07    CP:  9.54D-01  1.40D+00  7.65D-01  7.07D-01  8.45D-01
                    CP:  1.01D+00  1.20D+00  8.41D-01  1.00D+00
 E= -912.160230880284     Delta-E=       -0.000000009830 Rises=F Damp=F
 DIIS: error= 1.92D-06 at cycle  10 NSaved=  10.
 NSaved=10 IEnMin=10 EnMin= -912.160230880284     IErMin=10 ErrMin= 1.92D-06
 ErrMax= 1.92D-06  0.00D+00 EMaxC= 1.00D-01 BMatC= 1.57D-09 BMatP= 5.45D-09
 IDIUse=1 WtCom= 1.00D+00 WtEn= 0.00D+00
 Coeff-Com: -0.263D-04 0.659D-04 0.321D-03 0.613D-03 0.519D-03-0.685D-02
 Coeff-Com: -0.426D-01-0.230D-01 0.355D+00 0.716D+00
 Coeff:     -0.263D-04 0.659D-04 0.321D-03 0.613D-03 0.519D-03-0.685D-02
 Coeff:     -0.426D-01-0.230D-01 0.355D+00 0.716D+00
 Gap=     0.150 Goal=   None    Shift=    0.000
 RMSDP=1.90D-07 MaxDP=6.52D-06 DE=-9.83D-09 OVMax= 2.40D-05

 Cycle  11  Pass 1  IDiag  1:
 RMSU=  1.13D-07    CP:  9.54D-01  1.40D+00  7.65D-01  7.07D-01  8.45D-01
                    CP:  1.02D+00  1.21D+00  8.67D-01  1.14D+00  9.77D-01
 E= -912.160230882590     Delta-E=       -0.000000002306 Rises=F Damp=F
 DIIS: error= 4.67D-07 at cycle  11 NSaved=  11.
 NSaved=11 IEnMin=11 EnMin= -912.160230882590     IErMin=11 ErrMin= 4.67D-07
 ErrMax= 4.67D-07  0.00D+00 EMaxC= 1.00D-01 BMatC= 1.46D-10 BMatP= 1.57D-09
 IDIUse=1 WtCom= 1.00D+00 WtEn= 0.00D+00
 Coeff-Com: -0.213D-04 0.334D-04 0.277D-03 0.699D-03 0.160D-02 0.331D-03
 Coeff-Com: -0.250D-01-0.392D-01 0.248D-01 0.266D+00 0.770D+00
 Coeff:     -0.213D-04 0.334D-04 0.277D-03 0.699D-03 0.160D-02 0.331D-03
 Coeff:     -0.250D-01-0.392D-01 0.248D-01 0.266D+00 0.770D+00
 Gap=     0.150 Goal=   None    Shift=    0.000
 RMSDP=7.41D-08 MaxDP=2.22D-06 DE=-2.31D-09 OVMax= 1.40D-05

 Cycle  12  Pass 1  IDiag  1:
 RMSU=  3.93D-08    CP:  9.54D-01  1.40D+00  7.65D-01  7.07D-01  8.46D-01
                    CP:  1.02D+00  1.21D+00  8.72D-01  1.19D+00  1.10D+00
                    CP:  1.04D+00
 E= -912.160230882852     Delta-E=       -0.000000000261 Rises=F Damp=F
 DIIS: error= 1.61D-07 at cycle  12 NSaved=  12.
 NSaved=12 IEnMin=12 EnMin= -912.160230882852     IErMin=12 ErrMin= 1.61D-07
 ErrMax= 1.61D-07  0.00D+00 EMaxC= 1.00D-01 BMatC= 1.03D-11 BMatP= 1.46D-10
 IDIUse=1 WtCom= 1.00D+00 WtEn= 0.00D+00
 Coeff-Com: -0.146D-05 0.494D-06 0.221D-04 0.640D-04 0.260D-03 0.758D-03
 Coeff-Com:  0.356D-03-0.552D-02-0.223D-01-0.133D-01 0.128D+00 0.911D+00
 Coeff:     -0.146D-05 0.494D-06 0.221D-04 0.640D-04 0.260D-03 0.758D-03
 Coeff:      0.356D-03-0.552D-02-0.223D-01-0.133D-01 0.128D+00 0.911D+00
 Gap=     0.150 Goal=   None    Shift=    0.000
 RMSDP=2.52D-08 MaxDP=6.91D-07 DE=-2.61D-10 OVMax= 5.46D-06

 Cycle  13  Pass 1  IDiag  1:
 RMSU=  1.33D-08    CP:  9.54D-01  1.40D+00  7.65D-01  7.07D-01  8.46D-01
                    CP:  1.02D+00  1.21D+00  8.73D-01  1.20D+00  1.13D+00
                    CP:  1.16D+00  1.18D+00
 E= -912.160230882919     Delta-E=       -0.000000000067 Rises=F Damp=F
 DIIS: error= 9.93D-08 at cycle  13 NSaved=  13.
 NSaved=13 IEnMin=13 EnMin= -912.160230882919     IErMin=13 ErrMin= 9.93D-08
 ErrMax= 9.93D-08  0.00D+00 EMaxC= 1.00D-01 BMatC= 2.70D-12 BMatP= 1.03D-11
 IDIUse=1 WtCom= 1.00D+00 WtEn= 0.00D+00
 Coeff-Com:  0.233D-05-0.433D-05-0.287D-04-0.740D-04-0.115D-03 0.235D-03
 Coeff-Com:  0.330D-02 0.234D-02-0.129D-01-0.445D-01-0.634D-01 0.342D+00
 Coeff-Com:  0.773D+00
 Coeff:      0.233D-05-0.433D-05-0.287D-04-0.740D-04-0.115D-03 0.235D-03
 Coeff:      0.330D-02 0.234D-02-0.129D-01-0.445D-01-0.634D-01 0.342D+00
 Coeff:      0.773D+00
 Gap=     0.150 Goal=   None    Shift=    0.000
 RMSDP=1.21D-08 MaxDP=4.44D-07 DE=-6.73D-11 OVMax= 2.87D-06

 Cycle  14  Pass 1  IDiag  1:
 RMSU=  6.06D-09    CP:  9.54D-01  1.40D+00  7.65D-01  7.07D-01  8.46D-01
                    CP:  1.02D+00  1.21D+00  8.74D-01  1.20D+00  1.15D+00
                    CP:  1.21D+00  1.34D+00  1.09D+00
 E= -912.160230882874     Delta-E=        0.000000000045 Rises=F Damp=F
 DIIS: error= 4.03D-08 at cycle  14 NSaved=  14.
 NSaved=14 IEnMin=13 EnMin= -912.160230882919     IErMin=14 ErrMin= 4.03D-08
 ErrMax= 4.03D-08  0.00D+00 EMaxC= 1.00D-01 BMatC= 5.23D-13 BMatP= 2.70D-12
 IDIUse=1 WtCom= 1.00D+00 WtEn= 0.00D+00
 Coeff-Com:  0.822D-06-0.118D-05-0.105D-04-0.314D-04-0.660D-04-0.639D-04
 Coeff-Com:  0.791D-03 0.135D-02 0.194D-02-0.820D-02-0.389D-01-0.944D-01
 Coeff-Com:  0.275D+00 0.862D+00
 Coeff:      0.822D-06-0.118D-05-0.105D-04-0.314D-04-0.660D-04-0.639D-04
 Coeff:      0.791D-03 0.135D-02 0.194D-02-0.820D-02-0.389D-01-0.944D-01
 Coeff:      0.275D+00 0.862D+00
 Gap=     0.150 Goal=   None    Shift=    0.000
 RMSDP=4.92D-09 MaxDP=1.56D-07 DE= 4.50D-11 OVMax= 1.08D-06

 Error on total polarization charges =  0.01006
 SCF Done:  E(RM062X) =  -912.160230883     A.U. after   14 cycles
            NFock= 14  Conv=0.49D-08     -V/T= 2.0062
 KE= 9.065111266213D+02 PE=-5.076321736383D+03 EE= 1.784432760271D+03
 Leave Link  502 at Tue Feb  1 12:20:43 2022, MaxMem= 11408506880 cpu:             898.3 elap:              79.4
 (Enter /lustre1/prg/gaussian/bin/G16_C01_Linda9.2_SSE4/g16/l801.exe)
 DoSCS=F DFT=T ScalE2(SS,OS)=  1.000000  1.000000
 ExpMin= 9.54D-02 ExpMax= 1.47D+04 ExpMxC= 5.03D+02 IAcc=3 IRadAn=         5 AccDes= 0.00D+00
 HarFok:  IExCor=  205 AccDes= 0.00D+00 IRadAn=         5 IDoV=-2 UseB2=F ITyADJ=14
 ICtDFT= 12500011 ScaDFX=  1.000000  1.000000  1.000000  1.000000
 Largest valence mixing into a core orbital is  7.93D-05
 Largest core mixing into a valence orbital is  4.81D-05
 Range of M.O.s used for correlation:    21   335
 NBasis=   335 NAE=    69 NBE=    69 NFC=    20 NFV=     0
 NROrb=    315 NOA=    49 NOB=    49 NVA=   266 NVB=   266

 **** Warning!!: The largest alpha MO coefficient is  0.13518484D+02

 Leave Link  801 at Tue Feb  1 12:20:44 2022, MaxMem= 11408506880 cpu:               2.8 elap:               0.2
@@@@@@@@@@@@@@@@@@@@@@@@@@@@@@@@@@@@@@@@@@@@@@@@@@@@@@@@@@@
@    WARNING: REMOTE HOST IDENTIFICATION HAS CHANGED!     @
@@@@@@@@@@@@@@@@@@@@@@@@@@@@@@@@@@@@@@@@@@@@@@@@@@@@@@@@@@@
IT IS POSSIBLE THAT SOMEONE IS DOING SOMETHING NASTY!
Someone could be eavesdropping on you right now (man-in-the-middle attack)!
It is also possible that a host key has just been changed.
The fingerprint for the ECDSA key sent by the remote host is
SHA256:uZFWxMpnbwANwrBwp/ZOCoF6fxL0zHl17FOTau2Blak.
Please contact your system administrator.
Add correct host key in /lustre2/home/toliste/.ssh/known_hosts to get rid of this message.
Offending ECDSA key in /lustre2/home/toliste/.ssh/known_hosts:189
Password authentication is disabled to avoid man-in-the-middle attacks.
Keyboard-interactive authentication is disabled to avoid man-in-the-middle attacks.
@@@@@@@@@@@@@@@@@@@@@@@@@@@@@@@@@@@@@@@@@@@@@@@@@@@@@@@@@@@
@    WARNING: REMOTE HOST IDENTIFICATION HAS CHANGED!     @
@@@@@@@@@@@@@@@@@@@@@@@@@@@@@@@@@@@@@@@@@@@@@@@@@@@@@@@@@@@
IT IS POSSIBLE THAT SOMEONE IS DOING SOMETHING NASTY!
Someone could be eavesdropping on you right now (man-in-the-middle attack)!
It is also possible that a host key has just been changed.
The fingerprint for the ECDSA key sent by the remote host is
SHA256:+L5Si/uL/EZSP12xvq8qMjG7+f8qhNTGOjU6uYoKoR8.
Please contact your system administrator.
Add correct host key in /lustre2/home/toliste/.ssh/known_hosts to get rid of this message.
Offending ECDSA key in /lustre2/home/toliste/.ssh/known_hosts:133
Password authentication is disabled to avoid man-in-the-middle attacks.
Keyboard-interactive authentication is disabled to avoid man-in-the-middle attacks.
@@@@@@@@@@@@@@@@@@@@@@@@@@@@@@@@@@@@@@@@@@@@@@@@@@@@@@@@@@@
@    WARNING: REMOTE HOST IDENTIFICATION HAS CHANGED!     @
@@@@@@@@@@@@@@@@@@@@@@@@@@@@@@@@@@@@@@@@@@@@@@@@@@@@@@@@@@@
IT IS POSSIBLE THAT SOMEONE IS DOING SOMETHING NASTY!
Someone could be eavesdropping on you right now (man-in-the-middle attack)!
It is also possible that a host key has just been changed.
The fingerprint for the ECDSA key sent by the remote host is
SHA256:o8EorsFJYrst8GGL5kkfWBd1g9VHd2QDvyGiBqJHMPw.
Please contact your system administrator.
Add correct host key in /lustre2/home/toliste/.ssh/known_hosts to get rid of this message.
Offending ECDSA key in /lustre2/home/toliste/.ssh/known_hosts:190
Password authentication is disabled to avoid man-in-the-middle attacks.
Keyboard-interactive authentication is disabled to avoid man-in-the-middle attacks.
@@@@@@@@@@@@@@@@@@@@@@@@@@@@@@@@@@@@@@@@@@@@@@@@@@@@@@@@@@@
@    WARNING: REMOTE HOST IDENTIFICATION HAS CHANGED!     @
@@@@@@@@@@@@@@@@@@@@@@@@@@@@@@@@@@@@@@@@@@@@@@@@@@@@@@@@@@@
IT IS POSSIBLE THAT SOMEONE IS DOING SOMETHING NASTY!
Someone could be eavesdropping on you right now (man-in-the-middle attack)!
It is also possible that a host key has just been changed.
The fingerprint for the ECDSA key sent by the remote host is
SHA256:EgvXLyKEWXLzUSC1Gd2C+JUHEXxtfSSTty6rQDUS46Q.
Please contact your system administrator.
Add correct host key in /lustre2/home/toliste/.ssh/known_hosts to get rid of this message.
Offending ECDSA key in /lustre2/home/toliste/.ssh/known_hosts:130
Password authentication is disabled to avoid man-in-the-middle attacks.
Keyboard-interactive authentication is disabled to avoid man-in-the-middle attacks.
 (Enter /lustre1/prg/gaussian/bin/G16_C01_Linda9.2_SSE4/g16/linda-exe/l914.exel)
 RHF ground state
 Keep R1, R2, and R3 ints in memory in canonical form, NReq=4923275813.
 FoFCou: FMM=F IPFlag=           0 FMFlag=           0 FMFlg1=           0
         NFxFlg=           0 DoJE=F BraDBF=F KetDBF=F FulRan=T
         wScrn=  0.000000 ICntrl=       600 IOpCl=  0 I1Cent=           0 NGrid=           0
         NMat0=    1 NMatS0=  56280 NMatT0=    0 NMatD0=    1 NMtDS0=    0 NMtDT0=    0
 Symmetry not used in FoFCou.
 Two-electron integral symmetry not used.
 MDV= 11408506880 DFT=T DoStab=F Mixed=T DoRPA=T DoScal=F NonHer=T
 NEqPCM:  Using equilibrium solvation (IEInf=0, Eps=   7.4257, EpsInf=   1.9740)
 Making orbital integer symmetry assigments:
    24 initial guesses have been made.
 Convergence on wavefunction:    0.000001000000000
 Davidson Disk Diagonalization:  ConvIn= 1.00D-06 SkipCon=T Conv= 1.00D-06.
 Max sub-space:  2000 roots to seek:    24 dimension of matrix:        26068
 Iteration     1 Dimension    24 NMult     0 NNew     24
 CISAX will form    24 AO SS matrices at one time.
 NMat=    24 NSing=    24 JSym2X= 0.
 New state      2 was old state      3
 New state      3 was old state      2
 Excitation Energies [eV] at current iteration:
 Root      1 :     2.363993253582388
 Root      2 :     3.536612025981612
 Root      3 :     3.589496897214265
 Root      4 :     3.985666344533391
 Root      5 :     4.150769444418196
 Root      6 :     5.474511317976771
 Root      7 :     5.578291754120811
 Root      8 :     5.723753954708132
 Root      9 :     5.765863638797316
 Root     10 :     6.071168315240063
 Root     11 :     6.195695724050430
 Root     12 :     6.403920637497867
 Root     13 :     6.805815706069774
 Root     14 :     6.898761799709087
 Root     15 :     6.961817969882986
 Root     16 :     7.069575512831581
 Root     17 :     7.084570423462789
 Root     18 :     7.286545027163164
 Root     19 :     7.403236488811215
 Root     20 :     7.471814376759133
 Root     21 :     7.639645529430910
 Root     22 :     7.716252122068515
 Root     23 :     7.747823801545414
 Root     24 :     8.143315233724751
 Iteration     2 Dimension    36 NMult    24 NNew     12
 CISAX will form    12 AO SS matrices at one time.
 NMat=    12 NSing=    12 JSym2X= 0.
 Root      1 not converged, maximum delta is    0.049243440086951
 New state      2 was old state      3
 Root      2 not converged, maximum delta is    0.032574986261361
 New state      3 was old state      2
 Root      3 not converged, maximum delta is    0.038941892924455
 Root      4 not converged, maximum delta is    0.044316000518840
 Root      5 not converged, maximum delta is    0.054423507885193
 Root      6 not converged, maximum delta is    0.219512567475001
 Excitation Energies [eV] at current iteration:
 Root      1 :     1.939740833885302   Change is   -0.424252419697086
 Root      2 :     3.165009020322066   Change is   -0.424487876892199
 Root      3 :     3.285312537033933   Change is   -0.251299488947679
 Root      4 :     3.720681062760220   Change is   -0.264985281773172
 Root      5 :     3.926659846836218   Change is   -0.224109597581977
 Root      6 :     5.410003954011763   Change is   -0.064507363965008
 Iteration     3 Dimension    48 NMult    36 NNew     12
 CISAX will form    12 AO SS matrices at one time.
 NMat=    12 NSing=    12 JSym2X= 0.
 Root      1 not converged, maximum delta is    0.012031487310625
 Root      2 not converged, maximum delta is    0.014087659079065
 Root      3 not converged, maximum delta is    0.007486052405547
 Root      4 not converged, maximum delta is    0.008454326647886
 Root      5 not converged, maximum delta is    0.022101393409480
 Root      6 not converged, maximum delta is    0.433719242094532
 Excitation Energies [eV] at current iteration:
 Root      1 :     1.918129538031679   Change is   -0.021611295853623
 Root      2 :     3.145195141079937   Change is   -0.019813879242129
 Root      3 :     3.276707308857876   Change is   -0.008605228176057
 Root      4 :     3.711653950684402   Change is   -0.009027112075817
 Root      5 :     3.913205313305748   Change is   -0.013454533530471
 Root      6 :     5.289711444002113   Change is   -0.120292510009650
 Iteration     4 Dimension    60 NMult    48 NNew     12
 CISAX will form    12 AO SS matrices at one time.
 NMat=    12 NSing=    12 JSym2X= 0.
 Root      1 not converged, maximum delta is    0.003902692507946
 Root      2 not converged, maximum delta is    0.004992065042991
 Root      3 not converged, maximum delta is    0.002896734922395
 Root      4 not converged, maximum delta is    0.002693088279561
 Root      5 not converged, maximum delta is    0.005758697080399
 Root      6 not converged, maximum delta is    0.051072440775537
 Excitation Energies [eV] at current iteration:
 Root      1 :     1.917045021637733   Change is   -0.001084516393947
 Root      2 :     3.143114207371212   Change is   -0.002080933708725
 Root      3 :     3.275854187256825   Change is   -0.000853121601051
 Root      4 :     3.710449306220073   Change is   -0.001204644464329
 Root      5 :     3.911307771335863   Change is   -0.001897541969885
 Root      6 :     5.262754028830050   Change is   -0.026957415172064
 Iteration     5 Dimension    72 NMult    60 NNew     12
 CISAX will form    12 AO SS matrices at one time.
 NMat=    12 NSing=    12 JSym2X= 0.
 Root      1 not converged, maximum delta is    0.000522767513889
 Root      2 not converged, maximum delta is    0.000529587327213
 Root      3 not converged, maximum delta is    0.000594362377975
 Root      4 not converged, maximum delta is    0.001346260714288
 Root      5 not converged, maximum delta is    0.000474361827090
 Root      6 not converged, maximum delta is    0.011483497110662
 Excitation Energies [eV] at current iteration:
 Root      1 :     1.916991127855783   Change is   -0.000053893781950
 Root      2 :     3.143001168683309   Change is   -0.000113038687903
 Root      3 :     3.275799257869472   Change is   -0.000054929387353
 Root      4 :     3.710352562763171   Change is   -0.000096743456902
 Root      5 :     3.911257130005221   Change is   -0.000050641330642
 Root      6 :     5.258156192876251   Change is   -0.004597835953799
 Iteration     6 Dimension    84 NMult    72 NNew     12
 CISAX will form    12 AO SS matrices at one time.
 NMat=    12 NSing=    12 JSym2X= 0.
 Root      1 not converged, maximum delta is    0.000046493598107
 Root      2 not converged, maximum delta is    0.000112977822940
 Root      3 not converged, maximum delta is    0.000121932217582
 Root      4 not converged, maximum delta is    0.000188037414213
 Root      5 not converged, maximum delta is    0.000045668043383
 Root      6 not converged, maximum delta is    0.001538041696979
 Excitation Energies [eV] at current iteration:
 Root      1 :     1.916988970321581   Change is   -0.000002157534202
 Root      2 :     3.142995704854828   Change is   -0.000005463828481
 Root      3 :     3.275795899070136   Change is   -0.000003358799336
 Root      4 :     3.710346435980437   Change is   -0.000006126782734
 Root      5 :     3.911255850803078   Change is   -0.000001279202143
 Root      6 :     5.257798838189403   Change is   -0.000357354686848
 Iteration     7 Dimension    96 NMult    84 NNew     12
 CISAX will form    12 AO SS matrices at one time.
 NMat=    12 NSing=    12 JSym2X= 0.
 Root      1 not converged, maximum delta is    0.000014084847499
 Root      2 not converged, maximum delta is    0.000027067772361
 Root      3 not converged, maximum delta is    0.000018423677229
 Root      4 not converged, maximum delta is    0.000027085479153
 Root      5 not converged, maximum delta is    0.000014290692959
 Root      6 not converged, maximum delta is    0.000613516075361
 Excitation Energies [eV] at current iteration:
 Root      1 :     1.916988904517838   Change is   -0.000000065803744
 Root      2 :     3.142995369279741   Change is   -0.000000335575087
 Root      3 :     3.275795741044267   Change is   -0.000000158025869
 Root      4 :     3.710346121388453   Change is   -0.000000314591984
 Root      5 :     3.911255792373163   Change is   -0.000000058429915
 Root      6 :     5.257763876609694   Change is   -0.000034961579709
 Iteration     8 Dimension   108 NMult    96 NNew     12
 CISAX will form    12 AO SS matrices at one time.
 NMat=    12 NSing=    12 JSym2X= 0.
 Root      1 not converged, maximum delta is    0.000001663011755
 Root      2 not converged, maximum delta is    0.000003897590279
 Root      3 not converged, maximum delta is    0.000003122034923
 Root      4 not converged, maximum delta is    0.000004285168064
 Root      5 not converged, maximum delta is    0.000003449751743
 Root      6 not converged, maximum delta is    0.000209141853591
 Excitation Energies [eV] at current iteration:
 Root      1 :     1.916988902306670   Change is   -0.000000002211168
 Root      2 :     3.142995355854342   Change is   -0.000000013425399
 Root      3 :     3.275795735411973   Change is   -0.000000005632294
 Root      4 :     3.710346108575667   Change is   -0.000000012812785
 Root      5 :     3.911255789697925   Change is   -0.000000002675237
 Root      6 :     5.257760557572279   Change is   -0.000003319037414
 Iteration     9 Dimension   120 NMult   108 NNew     12
 CISAX will form    12 AO SS matrices at one time.
 NMat=    12 NSing=    12 JSym2X= 0.
 Root      1 has converged.
 Root      2 not converged, maximum delta is    0.000001320270726
 Root      3 has converged.
 Root      4 not converged, maximum delta is    0.000001835933746
 Root      5 has converged.
 Root      6 not converged, maximum delta is    0.000092698835940
 Excitation Energies [eV] at current iteration:
 Root      1 :     1.916988902254009   Change is   -0.000000000052661
 Root      2 :     3.142995354737935   Change is   -0.000000001116407
 Root      3 :     3.275795735283233   Change is   -0.000000000128740
 Root      4 :     3.710346107439161   Change is   -0.000000001136506
 Root      5 :     3.911255789608156   Change is   -0.000000000089769
 Root      6 :     5.257760293999754   Change is   -0.000000263572526
 Iteration    10 Dimension   126 NMult   120 NNew      6
 CISAX will form     6 AO SS matrices at one time.
 NMat=     6 NSing=     6 JSym2X= 0.
 Root      1 has converged.
 Root      2 has converged.
 Root      3 has converged.
 Root      4 has converged.
 Root      5 has converged.
 Root      6 not converged, maximum delta is    0.000042165828916
 Excitation Energies [eV] at current iteration:
 Root      1 :     1.916988902254009   Change is    0.000000000000000
[...]
     2  N    0.338815   6.191857   0.491221  -0.025855  -0.053590   0.003681
     3  C   -0.032517   0.491221   4.778749   0.406011   0.462006  -0.041840
     4  H   -0.003230  -0.025855   0.406011   0.595006  -0.039911  -0.003374
     5  C    0.002867  -0.053590   0.462006  -0.039911   4.793717   0.414104
     6  H    0.000178   0.003681  -0.041840  -0.003374   0.414104   0.632909
     7  C    0.004289  -0.079177  -0.053523   0.007065   0.531520  -0.039303
     8  H    0.000231   0.003779   0.009039  -0.000074  -0.040336  -0.005925
     9  C   -0.060830   0.431911  -0.136276   0.003042  -0.053610   0.008894
    10  C   -0.014361  -0.046805   0.008480  -0.000631   0.006876  -0.000241
    11  N    0.338933  -0.037503  -0.000208   0.000205  -0.000181   0.000002
    12  C   -0.032534  -0.000208  -0.000059  -0.000040   0.000020  -0.000000
    13  H   -0.003230   0.000205  -0.000040  -0.000006  -0.000001  -0.000000
    14  C    0.002857  -0.000182   0.000020  -0.000001   0.000003   0.000000
    15  H    0.000178   0.000002  -0.000000  -0.000000   0.000000  -0.000000
    16  C    0.004315   0.000497   0.000030   0.000003  -0.000035  -0.000000
    17  H    0.000232  -0.000011  -0.000001  -0.000000  -0.000001   0.000000
    18  C   -0.060919  -0.005530   0.000469   0.000043  -0.001388   0.000005
    19  F    0.476602  -0.026626  -0.002568  -0.000148  -0.000076   0.000001
    20  F    0.448746  -0.027223   0.008178   0.004047   0.000544   0.000002
    21  C    0.002919   0.003642  -0.000079   0.000016   0.000791  -0.000006
    22  C   -0.000137   0.000048  -0.000040  -0.000002  -0.000211   0.000011
    23  H    0.000005   0.000006  -0.000112   0.000001   0.000914  -0.000001
    24  C   -0.000006  -0.000005  -0.000000  -0.000000  -0.000021   0.000000
    25  H    0.000000   0.000000  -0.000000  -0.000000  -0.000001   0.000000
    26  C    0.000000   0.000000   0.000000   0.000000   0.000000  -0.000000
    27  C   -0.000007   0.000000  -0.000000  -0.000000  -0.000000   0.000000
    28  H    0.000000  -0.000000   0.000000  -0.000000   0.000000  -0.000000
    29  C   -0.000139  -0.000073   0.000006   0.000000   0.000015  -0.000000
    30  H    0.000004  -0.000002   0.000000   0.000000   0.000000  -0.000000
    31  H    0.000000   0.000000  -0.000000   0.000000   0.000000  -0.000000
               7          8          9         10         11         12
     1  B    0.004289   0.000231  -0.060830  -0.014361   0.338933  -0.032534
     2  N   -0.079177   0.003779   0.431911  -0.046805  -0.037503  -0.000208
     3  C   -0.053523   0.009039  -0.136276   0.008480  -0.000208  -0.000059
     4  H    0.007065  -0.000074   0.003042  -0.000631   0.000205  -0.000040
     5  C    0.531520  -0.040336  -0.053610   0.006876  -0.000181   0.000020
     6  H   -0.039303  -0.005925   0.008894  -0.000241   0.000002  -0.000000
     7  C    4.897249   0.419438   0.459898  -0.091337   0.000495   0.000030
     8  H    0.419438   0.633784  -0.043229  -0.006099  -0.000011  -0.000001
     9  C    0.459898  -0.043229   5.070246   0.295879  -0.005538   0.000473
    10  C   -0.091337  -0.006099   0.295879   5.521330  -0.046790   0.008475
    11  N    0.000495  -0.000011  -0.005538  -0.046790   6.191540   0.491163
    12  C    0.000030  -0.000001   0.000473   0.008475   0.491163   4.778787
    13  H    0.000003  -0.000000   0.000043  -0.000631  -0.025860   0.405994
    14  C   -0.000036  -0.000001  -0.001384   0.006872  -0.053618   0.462094
    15  H   -0.000000   0.000000   0.000005  -0.000241   0.003679  -0.041836
    16  C    0.000237   0.000035   0.006059  -0.091264  -0.079138  -0.053528
    17  H    0.000035   0.000002   0.000138  -0.006110   0.003783   0.009042
    18  C    0.006052   0.000134  -0.060110   0.295628   0.431864  -0.136279
    19  F    0.000074   0.000001  -0.001174   0.002628  -0.026617  -0.002565
    20  F   -0.000108   0.000001  -0.001979   0.000330  -0.027203   0.008158
    21  C   -0.014165  -0.001069  -0.040242   0.376916   0.003633  -0.000080
    22  C   -0.003859   0.002801  -0.023717  -0.083259  -0.000073   0.000006
    23  H    0.003846  -0.000493   0.008135  -0.026673  -0.000002   0.000000
    24  C    0.000628   0.000705   0.000346   0.010827   0.000000  -0.000000
    25  H    0.000013   0.000024   0.000041  -0.000434  -0.000000   0.000000
    26  C   -0.000013  -0.000027  -0.000038   0.000633   0.000000   0.000000
    27  C    0.000009  -0.000006  -0.000324   0.010819  -0.000005  -0.000000
    28  H   -0.000000  -0.000000   0.000004  -0.000435   0.000000  -0.000000
    29  C   -0.000096  -0.000118   0.013132  -0.083214   0.000048  -0.000040
    30  H   -0.000029  -0.000003   0.000625  -0.026646   0.000002  -0.000112
    31  H    0.000000   0.000000  -0.000000   0.000011   0.000000  -0.000000
              13         14         15         16         17         18
     1  B   -0.003230   0.002857   0.000178   0.004315   0.000232  -0.060919
     2  N    0.000205  -0.000182   0.000002   0.000497  -0.000011  -0.005530
     3  C   -0.000040   0.000020  -0.000000   0.000030  -0.000001   0.000469
     4  H   -0.000006  -0.000001  -0.000000   0.000003  -0.000000   0.000043
     5  C   -0.000001   0.000003   0.000000  -0.000035  -0.000001  -0.001388
     6  H   -0.000000   0.000000  -0.000000  -0.000000   0.000000   0.000005
     7  C    0.000003  -0.000036  -0.000000   0.000237   0.000035   0.006052
     8  H   -0.000000  -0.000001   0.000000   0.000035   0.000002   0.000134
     9  C    0.000043  -0.001384   0.000005   0.006059   0.000138  -0.060110
    10  C   -0.000631   0.006872  -0.000241  -0.091264  -0.006110   0.295628
    11  N   -0.025860  -0.053618   0.003679  -0.079138   0.003783   0.431864
    12  C    0.405994   0.462094  -0.041836  -0.053528   0.009042  -0.136279
    13  H    0.594988  -0.039885  -0.003374   0.007062  -0.000074   0.003047
    14  C   -0.039885   4.793507   0.414103   0.531555  -0.040321  -0.053618
    15  H   -0.003374   0.414103   0.632870  -0.039305  -0.005919   0.008889
    16  C    0.007062   0.531555  -0.039305   4.897044   0.419460   0.459935
    17  H   -0.000074  -0.040321  -0.005919   0.419460   0.633722  -0.043231
    18  C    0.003047  -0.053618   0.008889   0.459935  -0.043231   5.070999
    19  F   -0.000148  -0.000076   0.000001   0.000074   0.000001  -0.001191
    20  F    0.004036   0.000543   0.000002  -0.000108   0.000001  -0.001980
    21  C    0.000016   0.000792  -0.000006  -0.014143  -0.001063  -0.040269
    22  C    0.000000   0.000014  -0.000000  -0.000095  -0.000118   0.013133
    23  H    0.000000   0.000000  -0.000000  -0.000029  -0.000003   0.000626
    24  C   -0.000000  -0.000000   0.000000   0.000008  -0.000006  -0.000324
    25  H   -0.000000   0.000000  -0.000000  -0.000000  -0.000000   0.000004
    26  C    0.000000   0.000000  -0.000000  -0.000014  -0.000027  -0.000038
    27  C   -0.000000  -0.000021   0.000000   0.000625   0.000700   0.000351
    28  H   -0.000000  -0.000001   0.000000   0.000013   0.000023   0.000041
    29  C   -0.000002  -0.000213   0.000011  -0.003874   0.002841  -0.023805
    30  H    0.000001   0.000914  -0.000001   0.003895  -0.000480   0.008064
    31  H    0.000000   0.000000  -0.000000   0.000000   0.000000  -0.000000
              19         20         21         22         23         24
     1  B    0.476602   0.448746   0.002919  -0.000137   0.000005  -0.000006
     2  N   -0.026626  -0.027223   0.003642   0.000048   0.000006  -0.000005
     3  C   -0.002568   0.008178  -0.000079  -0.000040  -0.000112  -0.000000
     4  H   -0.000148   0.004047   0.000016  -0.000002   0.000001  -0.000000
     5  C   -0.000076   0.000544   0.000791  -0.000211   0.000914  -0.000021
     6  H    0.000001   0.000002  -0.000006   0.000011  -0.000001   0.000000
     7  C    0.000074  -0.000108  -0.014165  -0.003859   0.003846   0.000628
     8  H    0.000001   0.000001  -0.001069   0.002801  -0.000493   0.000705
     9  C   -0.001174  -0.001979  -0.040242  -0.023717   0.008135   0.000346
    10  C    0.002628   0.000330   0.376916  -0.083259  -0.026673   0.010827
    11  N   -0.026617  -0.027203   0.003633  -0.000073  -0.000002   0.000000
    12  C   -0.002565   0.008158  -0.000080   0.000006   0.000000  -0.000000
    13  H   -0.000148   0.004036   0.000016   0.000000   0.000000  -0.000000
    14  C   -0.000076   0.000543   0.000792   0.000014   0.000000  -0.000000
    15  H    0.000001   0.000002  -0.000006  -0.000000  -0.000000   0.000000
    16  C    0.000074  -0.000108  -0.014143  -0.000095  -0.000029   0.000008
    17  H    0.000001   0.000001  -0.001063  -0.000118  -0.000003  -0.000006
    18  C   -0.001191  -0.001980  -0.040269   0.013133   0.000626  -0.000324
    19  F    8.822749  -0.016207   0.000168  -0.000004   0.000002  -0.000000
    20  F   -0.016207   8.830990  -0.000001  -0.000000  -0.000000   0.000000
    21  C    0.000168  -0.000001   4.849341   0.476962  -0.039332   0.004589
    22  C   -0.000004  -0.000000   0.476962   4.912484   0.394986   0.518793
    23  H    0.000002  -0.000000  -0.039332   0.394986   0.680846  -0.039168
    24  C   -0.000000   0.000000   0.004589   0.518793  -0.039168   4.704551
    25  H   -0.000000  -0.000000   0.008840  -0.031391  -0.013758   0.394754
    26  C    0.000000  -0.000000  -0.065706  -0.020554   0.009368   0.503719
    27  C   -0.000000   0.000000   0.004565  -0.068422  -0.001007  -0.004902
    28  H   -0.000000  -0.000000   0.008829   0.000240   0.000056   0.008240
    29  C   -0.000004  -0.000000   0.477014  -0.062304   0.009959  -0.068435
    30  H    0.000002  -0.000000  -0.039254   0.009962  -0.000079  -0.001004
    31  H    0.000000  -0.000000  -0.000440   0.009650  -0.000196  -0.043518
              25         26         27         28         29         30
     1  B    0.000000   0.000000  -0.000007   0.000000  -0.000139   0.000004
     2  N    0.000000   0.000000   0.000000  -0.000000  -0.000073  -0.000002
     3  C   -0.000000   0.000000  -0.000000   0.000000   0.000006   0.000000
     4  H   -0.000000   0.000000  -0.000000  -0.000000   0.000000   0.000000
     5  C   -0.000001   0.000000  -0.000000   0.000000   0.000015   0.000000
     6  H    0.000000  -0.000000   0.000000  -0.000000  -0.000000  -0.000000
     7  C    0.000013  -0.000013   0.000009  -0.000000  -0.000096  -0.000029
     8  H    0.000024  -0.000027  -0.000006  -0.000000  -0.000118  -0.000003
     9  C    0.000041  -0.000038  -0.000324   0.000004   0.013132   0.000625
    10  C   -0.000434   0.000633   0.010819  -0.000435  -0.083214  -0.026646
    11  N   -0.000000   0.000000  -0.000005   0.000000   0.000048   0.000002
    12  C    0.000000   0.000000  -0.000000  -0.000000  -0.000040  -0.000112
    13  H   -0.000000   0.000000  -0.000000  -0.000000  -0.000002   0.000001
    14  C    0.000000   0.000000  -0.000021  -0.000001  -0.000213   0.000914
    15  H   -0.000000  -0.000000   0.000000   0.000000   0.000011  -0.000001
    16  C   -0.000000  -0.000014   0.000625   0.000013  -0.003874   0.003895
    17  H   -0.000000  -0.000027   0.000700   0.000023   0.002841  -0.000480
    18  C    0.000004  -0.000038   0.000351   0.000041  -0.023805   0.008064
    19  F   -0.000000   0.000000  -0.000000  -0.000000  -0.000004   0.000002
    20  F   -0.000000  -0.000000   0.000000  -0.000000  -0.000000  -0.000000
    21  C    0.008840  -0.065706   0.004565   0.008829   0.477014  -0.039254
    22  C   -0.031391  -0.020554  -0.068422   0.000240  -0.062304   0.009962
    23  H   -0.013758   0.009368  -0.001007   0.000056   0.009959  -0.000079
    24  C    0.394754   0.503719  -0.004902   0.008240  -0.068435  -0.001004
    25  H    0.671931  -0.046811   0.008242  -0.000227   0.000238   0.000056
    26  C   -0.046811   4.771691   0.503687  -0.046805  -0.020533   0.009359
    27  C    0.008242   0.503687   4.704623   0.394758   0.518769  -0.039158
    28  H   -0.000227  -0.046805   0.394758   0.671909  -0.031416  -0.013740
    29  C    0.000238  -0.020533   0.518769  -0.031416   4.912331   0.395036
    30  H    0.000056   0.009359  -0.039158  -0.013740   0.395036   0.680487
    31  H   -0.012122   0.402118  -0.043521  -0.012122   0.009649  -0.000196
              31
     1  B    0.000000
     2  N    0.000000
     3  C   -0.000000
     4  H    0.000000
     5  C    0.000000
     6  H   -0.000000
     7  C    0.000000
     8  H    0.000000
     9  C   -0.000000
    10  C    0.000011
    11  N    0.000000
    12  C   -0.000000
    13  H    0.000000
    14  C    0.000000
    15  H   -0.000000
    16  C    0.000000
    17  H    0.000000
    18  C   -0.000000
    19  F    0.000000
    20  F   -0.000000
    21  C   -0.000440
    22  C    0.009650
    23  H   -0.000196
    24  C   -0.043518
    25  H   -0.012122
    26  C    0.402118
    27  C   -0.043521
    28  H   -0.012122
    29  C    0.009649
    30  H   -0.000196
    31  H    0.670468
 Mulliken charges:
               1
     1  B    0.197314
     2  N   -0.162875
     3  C    0.103055
     4  H    0.057832
     5  C   -0.024015
     6  H    0.030904
     7  C   -0.049237
     8  H    0.027417
     9  C    0.129580
    10  C   -0.020533
    11  N   -0.162600
    12  C    0.103042
    13  H    0.057857
    14  C   -0.023920
    15  H    0.030941
    16  C   -0.049312
    17  H    0.027384
    18  C    0.129399
    19  F   -0.224898
    20  F   -0.230769
    21  C    0.036820
    22  C   -0.044903
    23  H    0.012101
    24  C    0.010231
    25  H    0.020603
    26  C   -0.000009
    27  C    0.010225
    28  H    0.020633
    29  C   -0.044785
    30  H    0.012295
    31  H    0.020221
 Sum of Mulliken charges =  -0.00000
 Mulliken charges with hydrogens summed into heavy atoms:
               1
     1  B    0.197314
     2  N   -0.162875
     3  C    0.160886
     5  C    0.006889
     7  C   -0.021819
     9  C    0.129580
    10  C   -0.020533
    11  N   -0.162600
    12  C    0.160899
    14  C    0.007021
    16  C   -0.021929
    18  C    0.129399
    19  F   -0.224898
    20  F   -0.230769
    21  C    0.036820
    22  C   -0.032802
    24  C    0.030834
    26  C    0.020212
    27  C    0.030859
    29  C   -0.032490
 Electronic spatial extent (au):  <R**2>=           8571.4195
 Charge=              0.0000 electrons
 Dipole moment (field-independent basis, Debye):
    X=             -2.9378    Y=             -3.9381    Z=              1.5513  Tot=              5.1523
 Quadrupole moment (field-independent basis, Debye-Ang):
   XX=            -88.2763   YY=           -123.3780   ZZ=            -89.4903
   XY=             -0.2202   XZ=             -0.6080   YZ=             -5.8429
 Traceless Quadrupole moment (field-independent basis, Debye-Ang):
   XX=             12.1052   YY=            -22.9964   ZZ=             10.8912
   XY=             -0.2202   XZ=             -0.6080   YZ=             -5.8429
 Octapole moment (field-independent basis, Debye-Ang**2):
  XXX=            605.4509  YYY=            -55.2141  ZZZ=           -490.1156  XYY=            268.2052
  XXY=             -8.6734  XXZ=           -137.4892  XZZ=            187.7891  YZZ=            -32.2747
  YYZ=           -204.0302  XYZ=             -9.4770
 Hexadecapole moment (field-independent basis, Debye-Ang**3):
 XXXX=          -5588.9261 YYYY=           -569.5698 ZZZZ=          -4138.5765 XXXY=             50.8779
 XXXZ=           1367.8076 YYYX=            170.3883 YYYZ=             -7.9379 ZZZX=           1417.3482
 ZZZY=            -50.4830 XXYY=          -1265.3539 XXZZ=          -1518.4653 YYZZ=           -913.1494
 XXYZ=             77.4957 YYXZ=            645.1381 ZZXY=             20.4683
 N-N= 1.472196383822D+03 E-N=-5.074074146539D+03  KE= 9.065749055566D+02
 No NMR shielding tensors so no spin-rotation constants.
 Leave Link  601 at Tue Feb  1 14:54:26 2022, MaxMem= 11408506880 cpu:               5.5 elap:               0.6
 (Enter /lustre1/prg/gaussian/bin/G16_C01_Linda9.2_SSE4/g16/l9999.exe)
 Electronic transition elements 
                 1             2             3             4             5 
      1  -0.912090D+03 -0.912046D+03 -0.912040D+03 -0.912025D+03 -0.912019D+03
      2  -0.150081D+01 -0.235089D+01  0.387608D+00  0.379673D+00  0.378903D+00
      3   0.338788D+00  0.468039D+00 -0.871115D-01  0.252354D+00 -0.881894D-01
      4  -0.197263D+01  0.186310D+01  0.520840D+00 -0.243760D+00  0.498914D+00
      5   0.111106D+00  0.276820D+00 -0.495329D-01 -0.549073D-01 -0.591407D-01
      6  -0.250797D-01 -0.582613D-01  0.111295D-01 -0.348104D-01  0.137377D-01
      7   0.146006D+00 -0.219917D+00 -0.664722D-01  0.355077D-01 -0.778938D-01
      8  -0.556625D-01  0.184707D+00 -0.282964D+00 -0.125838D+00 -0.169492D+00
      9   0.139286D+01 -0.330529D-01  0.573542D+00  0.196225D-01 -0.146943D+01
     10   0.281206D+00  0.238473D+00  0.314945D+00 -0.165960D+00 -0.126799D+00
     11  -0.399702D+00 -0.286905D+01  0.436070D+00  0.274877D+00  0.918522D+00
     12   0.424734D-01  0.599417D-01 -0.388342D-01  0.341623D-01  0.168241D-01
     13   0.365944D+00 -0.144201D+01 -0.410964D+00  0.117721D+00 -0.939171D+00
     14  -0.491157D-01  0.300812D+00  0.375965D-01  0.163246D+00 -0.143309D+00
     15  -0.122677D+00  0.282820D+01  0.142312D+00 -0.176710D+00  0.245829D+00
     16  -0.155105D+00 -0.353445D+00  0.147945D+00 -0.120462D+00  0.337439D-01
                 6 
      1  -0.911968D+03
      2  -0.535064D+00
      3   0.849722D-01
      4   0.421046D+00
      5   0.106268D+00
      6  -0.187697D-01
      7  -0.839669D-01
      8   0.680852D-01
      9  -0.120463D-01
     10   0.894132D-01
     11  -0.192873D+01
     12   0.238956D-02
     13  -0.123469D+01
     14   0.251361D+00
     15   0.141498D+01
     16  -0.169501D+00
 Unable to Open any file for archive entry.
 1\1\VILNIUS-FIZIKA73\FOpt\RM062X TD-FC\CC-pVDZ\C15H11B1F2N2\TOLISTE\01
 -Feb-2022\0\\#p m062x cc-pvdz scrf=(cpcm,solvent=TetraHydroFuran) td=(
 nstate=6,root=1) opt=tight nosymm density=all int=ultrafine fchk\\BDP-
 phenyl, optimized R1 in toluene\\0,1\B,-0.2128382937,0.9906205833,0.34
 92605949\N,-0.0568953055,0.1016836899,1.6119665743\C,1.0566545978,-0.4
 029665591,2.1476672702\H,2.0310444333,-0.1724259565,1.7232738065\C,0.7
 217547668,-1.2154799281,3.2611626846\H,1.4299222306,-1.7444965767,3.89
 23313531\C,-0.6629246981,-1.2011624483,3.3740719445\H,-1.2713954412,-1
 .7540098636,4.082811617\C,-1.1582614934,-0.349841298,2.347172124\C,-2.
 4954161202,-0.0195469092,1.9116410463\N,-1.5080927469,0.4305235518,-0.
 2963144494\C,-1.7846797351,0.2403082862,-1.5882523194\H,-1.073106608,0
 .5315998782,-2.3573772359\C,-3.0630313174,-0.3609272946,-1.7165132083\
 H,-3.5473207198,-0.6208205824,-2.6533710295\C,-3.5552282982,-0.5496122
 053,-0.4310314754\H,-4.4853318986,-1.0313592458,-0.1461522839\C,-2.585
 0932278,-0.027983644,0.4697762173\F,-0.3832314536,2.3254753472,0.70900
 09333\F,0.8683585273,0.8197037424,-0.502188996\C,-3.6256336072,0.13719
 33478,2.79668915\C,-3.4707491849,0.0834945733,4.2029575402\H,-2.481380
 5733,-0.0570146353,4.6345518949\C,-4.558835756,0.2450767741,5.05030111
 11\H,-4.4074705005,0.1993226306,6.1292216292\C,-5.8351516085,0.4778242
 386,4.5318613078\C,-6.0015343699,0.5765449765,3.1482697853\H,-6.985417
 6659,0.7918848435,2.7302555544\C,-4.9192328733,0.4162046505,2.29332863
 59\H,-5.0694069005,0.5380704159,1.2220786328\H,-6.6874831583,0.6021186
 169,5.1999705899\\Version=ES64L-G16RevC.01\HF=-912.162625\RMSD=7.428e-
 09\RMSF=1.787e-06\Dipole=-1.1558121,-1.5493714,0.6103251\Quadrupole=8.
 9999433,-17.0972946,8.0973513,-0.1636833,-0.4520556,-4.3440431\PG=C01 
 [X(C15H11B1F2N2)]\\@
 The archive entry for this job was punched.


 THE ONLY TROUBLE WITH A SURE THING IS THE UNCERTAINTY.
     -- FROM A TEABAG (BELONGING TO W.H.?)
 Job cpu time:       0 days  0 hours  3 minutes 23.4 seconds.
 Elapsed time:       0 days  2 hours 33 minutes 15.6 seconds.
 File lengths (MBytes):  RWF=    779 Int=      0 D2E=      0 Chk=     37 Scr=      1
 Normal termination of Gaussian 16 at Tue Feb  1 14:54:29 2022.
