 Entering Gaussian System, Link 0=g09
 Initial command:
 /scratch/prg/gaussian/bin/g09/l1.exe "/scratch/home/stetol/gaussian/bodipy/study/4_opt_dipoles/phenyl-tolu-optS1/Gau-6068.inp" -scrdir="/scratch/home/stetol/gaussian/bodipy/study/4_opt_dipoles/phenyl-tolu-optS1/"
 Default is to use a total of  12 processors:
                               12 via shared-memory
                                1 via Linda
 Entering Link 1 = /scratch/prg/gaussian/bin/g09/l1.exe PID=      6069.
  
 Copyright (c) 1988,1990,1992,1993,1995,1998,2003,2009,2013,
            Gaussian, Inc.  All Rights Reserved.
  
 This is part of the Gaussian(R) 09 program.  It is based on
 the Gaussian(R) 03 system (copyright 2003, Gaussian, Inc.),
 the Gaussian(R) 98 system (copyright 1998, Gaussian, Inc.),
 the Gaussian(R) 94 system (copyright 1995, Gaussian, Inc.),
 the Gaussian 92(TM) system (copyright 1992, Gaussian, Inc.),
 the Gaussian 90(TM) system (copyright 1990, Gaussian, Inc.),
 the Gaussian 88(TM) system (copyright 1988, Gaussian, Inc.),
 the Gaussian 86(TM) system (copyright 1986, Carnegie Mellon
 University), and the Gaussian 82(TM) system (copyright 1983,
 Carnegie Mellon University). Gaussian is a federally registered
 trademark of Gaussian, Inc.
  
 This software contains proprietary and confidential information,
 including trade secrets, belonging to Gaussian, Inc.
  
 This software is provided under written license and may be
 used, copied, transmitted, or stored only in accord with that
 written license.
  
 The following legend is applicable only to US Government
 contracts under FAR:
  
                    RESTRICTED RIGHTS LEGEND
  
 Use, reproduction and disclosure by the US Government is
 subject to restrictions as set forth in subparagraphs (a)
 and (c) of the Commercial Computer Software - Restricted
 Rights clause in FAR 52.227-19.
  
 Gaussian, Inc.
 340 Quinnipiac St., Bldg. 40, Wallingford CT 06492
  
  
 ---------------------------------------------------------------
 Warning -- This program may not be used in any manner that
 competes with the business of Gaussian, Inc. or will provide
 assistance to any competitor of Gaussian, Inc.  The licensee
 of this program is prohibited from giving any competitor of
 Gaussian, Inc. access to this program.  By using this program,
 the user acknowledges that Gaussian, Inc. is engaged in the
 business of creating and licensing software in the field of
 computational chemistry and represents and warrants to the
 licensee that it is not a competitor of Gaussian, Inc. and that
 it will not use this program in any manner prohibited above.
 ---------------------------------------------------------------
  

 Cite this work as:
 Gaussian 09, Revision D.01,
 M. J. Frisch, G. W. Trucks, H. B. Schlegel, G. E. Scuseria, 
 M. A. Robb, J. R. Cheeseman, G. Scalmani, V. Barone, B. Mennucci, 
 G. A. Petersson, H. Nakatsuji, M. Caricato, X. Li, H. P. Hratchian, 
 A. F. Izmaylov, J. Bloino, G. Zheng, J. L. Sonnenberg, M. Hada, 
 M. Ehara, K. Toyota, R. Fukuda, J. Hasegawa, M. Ishida, T. Nakajima, 
 Y. Honda, O. Kitao, H. Nakai, T. Vreven, J. A. Montgomery, Jr., 
 J. E. Peralta, F. Ogliaro, M. Bearpark, J. J. Heyd, E. Brothers, 
 K. N. Kudin, V. N. Staroverov, T. Keith, R. Kobayashi, J. Normand, 
 K. Raghavachari, A. Rendell, J. C. Burant, S. S. Iyengar, J. Tomasi, 
 M. Cossi, N. Rega, J. M. Millam, M. Klene, J. E. Knox, J. B. Cross, 
 V. Bakken, C. Adamo, J. Jaramillo, R. Gomperts, R. E. Stratmann, 
 O. Yazyev, A. J. Austin, R. Cammi, C. Pomelli, J. W. Ochterski, 
 R. L. Martin, K. Morokuma, V. G. Zakrzewski, G. A. Voth, 
 P. Salvador, J. J. Dannenberg, S. Dapprich, A. D. Daniels, 
 O. Farkas, J. B. Foresman, J. V. Ortiz, J. Cioslowski, 
 and D. J. Fox, Gaussian, Inc., Wallingford CT, 2013.
 
 ******************************************
 Gaussian 09:  EM64L-G09RevD.01 24-Apr-2013
                28-Sep-2018 
 ******************************************
 %LindaWorkers=fizika90-ib.bullx,fizika91-ib.bullx,fizika92-ib.bullx,fizika93-ib.
 bullx
 %chk=bodipy.chk
 SetLPE:  input flags=""
 SetLPE:    new flags=" -nodelist 'fizika90-ib.bullx fizika91-ib.bullx fizika92-ib.bullx fizika93-ib.bullx'"
 Will use up to    4 processors via Linda.
 Default route:  MaxDisk=50000GB
 ----------------------------------------------------------------------
 #p m062x cc-pvdz scrf=(cpcm,solvent=Toluene) td=(nstate=6,root=1) opt=
 tight nosymm density=all int=ultrafine fchk
 ----------------------------------------------------------------------
 1/7=10,14=-1,18=20,19=15,26=4,38=1/1,3;
 2/9=110,12=2,15=1,17=6,18=5,40=1/2;
 3/5=16,11=9,16=1,25=1,30=1,70=2101,71=1,72=13,74=-55,75=-5/1,2,8,3;
 4//1;
 5/5=2,38=5,53=13/2;
 8/6=1,10=1,107=1,108=6/1;
 9/8=1,15=2,30=10,41=6,42=1,70=2/14;
 10/5=4,31=1/2;
 6/7=2,8=2,9=2,10=2,22=-2/1;
 7/12=6,13=5,14=1,30=1/1,2,3,16;
 1/7=10,14=-1,18=20,19=15,26=4/3(2);
 2/9=110,15=1/2;
 99//99;
 2/9=110,15=1/2;
 3/5=16,11=9,16=1,25=1,30=1,70=2105,71=1,72=13,74=-55,75=-5/1,2,8,3;
 4/5=5,16=3,69=1/1;
 5/5=2,38=5,53=13/2;
 8/6=1,10=1,107=1,108=6/1;
 9/8=1,15=2,30=10,41=6,42=1,49=4,70=2/14;
 10/5=4,31=1/2;
 7/12=6,13=5,14=1,30=1/1,2,3,16;
 1/7=10,14=-1,18=20,19=15,26=4/3(-8);
 2/9=110,15=1/2;
 6/7=2,8=2,9=2,10=2,22=-2/1;
 99//99;
 Leave Link    1 at Fri Sep 28 13:37:52 2018, MaxMem=           0 cpu:        54.2
 (Enter /scratch/prg/gaussian/bin/g09/l101.exe)
 ---------------------------------------------
 BODIPY-phenyl at around S1 minimum in toluene
 ---------------------------------------------
 Symbolic Z-matrix:
 Charge =  0 Multiplicity = 1
 B                     0.01206  -0.00039  -0.00772 
 N                     0.00805  -0.04561   1.53936 
 C                     1.1088   -0.0446    2.29684 
 H                     2.09639  -0.03587   1.84047 
 C                     0.74993  -0.03997   3.67142 
 H                     1.44794  -0.02968   4.50358 
 C                    -0.63683  -0.03428   3.73058 
 H                    -1.26334   0.00134   4.616 
 C                    -1.11199  -0.04516   2.38697 
 C                    -2.43698   0.00002   1.8694 
 N                    -1.48295   0.04541  -0.40589 
 C                    -1.92836   0.04464  -1.66565 
 H                    -1.23104   0.03579  -2.50073 
 C                    -3.34898   0.04035  -1.67631 
 H                    -3.97116   0.03026  -2.56659 
 C                    -3.76647   0.03464  -0.35256 
 H                    -4.78428  -0.00077   0.02234 
 C                    -2.59248   0.0452    0.45542 
 F                     0.67761   1.13871  -0.45802 
 F                     0.61923  -1.13998  -0.53306 
 C                    -3.60325   0.        2.76333 
 C                    -3.69437  -0.91677   3.82576 
 H                    -2.90157  -1.65298   3.96726 
 C                    -4.80098  -0.91605   4.67009 
 H                    -4.85969  -1.64242   5.4814 
 C                    -5.83538  -0.00001   4.47421 
 C                    -5.75575   0.91604   3.42446 
 H                    -6.55445   1.64241   3.27034 
 C                    -4.65287   0.91678   2.57526 
 H                    -4.5835    1.653     1.77293 
 H                    -6.70077  -0.00002   5.13753 
 
 NAtoms=     31 NQM=       31 NQMF=       0 NMMI=      0 NMMIF=      0
                NMic=       0 NMicF=      0.
                    Isotopes and Nuclear Properties:
 (Nuclear quadrupole moments (NQMom) in fm**2, nuclear magnetic moments (NMagM)
  in nuclear magnetons)

  Atom         1           2           3           4           5           6           7           8           9          10
 IAtWgt=          11          14          12           1          12           1          12           1          12          12
 AtmWgt=  11.0093053  14.0030740  12.0000000   1.0078250  12.0000000   1.0078250  12.0000000   1.0078250  12.0000000  12.0000000
 NucSpn=           3           2           0           1           0           1           0           1           0           0
 AtZEff=   0.0000000   0.0000000   0.0000000   0.0000000   0.0000000   0.0000000   0.0000000   0.0000000   0.0000000   0.0000000
 NQMom=    4.0590000   2.0440000   0.0000000   0.0000000   0.0000000   0.0000000   0.0000000   0.0000000   0.0000000   0.0000000
 NMagM=    2.6886370   0.4037610   0.0000000   2.7928460   0.0000000   2.7928460   0.0000000   2.7928460   0.0000000   0.0000000
 AtZNuc=   5.0000000   7.0000000   6.0000000   1.0000000   6.0000000   1.0000000   6.0000000   1.0000000   6.0000000   6.0000000

  Atom        11          12          13          14          15          16          17          18          19          20
 IAtWgt=          14          12           1          12           1          12           1          12          19          19
 AtmWgt=  14.0030740  12.0000000   1.0078250  12.0000000   1.0078250  12.0000000   1.0078250  12.0000000  18.9984033  18.9984033
 NucSpn=           2           0           1           0           1           0           1           0           1           1
 AtZEff=   0.0000000   0.0000000   0.0000000   0.0000000   0.0000000   0.0000000   0.0000000   0.0000000   0.0000000   0.0000000
 NQMom=    2.0440000   0.0000000   0.0000000   0.0000000   0.0000000   0.0000000   0.0000000   0.0000000   0.0000000   0.0000000
 NMagM=    0.4037610   0.0000000   2.7928460   0.0000000   2.7928460   0.0000000   2.7928460   0.0000000   2.6288670   2.6288670
 AtZNuc=   7.0000000   6.0000000   1.0000000   6.0000000   1.0000000   6.0000000   1.0000000   6.0000000   9.0000000   9.0000000

  Atom        21          22          23          24          25          26          27          28          29          30
 IAtWgt=          12          12           1          12           1          12          12           1          12           1
 AtmWgt=  12.0000000  12.0000000   1.0078250  12.0000000   1.0078250  12.0000000  12.0000000   1.0078250  12.0000000   1.0078250
 NucSpn=           0           0           1           0           1           0           0           1           0           1
 AtZEff=   0.0000000   0.0000000   0.0000000   0.0000000   0.0000000   0.0000000   0.0000000   0.0000000   0.0000000   0.0000000
 NQMom=    0.0000000   0.0000000   0.0000000   0.0000000   0.0000000   0.0000000   0.0000000   0.0000000   0.0000000   0.0000000
 NMagM=    0.0000000   0.0000000   2.7928460   0.0000000   2.7928460   0.0000000   0.0000000   2.7928460   0.0000000   2.7928460
 AtZNuc=   6.0000000   6.0000000   1.0000000   6.0000000   1.0000000   6.0000000   6.0000000   1.0000000   6.0000000   1.0000000

  Atom        31
 IAtWgt=           1
 AtmWgt=   1.0078250
 NucSpn=           1
 AtZEff=   0.0000000
 NQMom=    0.0000000
 NMagM=    2.7928460
 AtZNuc=   1.0000000
 Leave Link  101 at Fri Sep 28 13:38:01 2018, MaxMem= 12079595520 cpu:        42.9
 (Enter /scratch/prg/gaussian/bin/g09/l103.exe)

 GradGradGradGradGradGradGradGradGradGradGradGradGradGradGradGradGradGrad
 Berny optimization.
 Initialization pass.
                           ----------------------------
                           !    Initial Parameters    !
                           ! (Angstroms and Degrees)  !
 --------------------------                            --------------------------
 ! Name  Definition              Value          Derivative Info.                !
 --------------------------------------------------------------------------------
 ! R1    R(1,2)                  1.5478         estimate D2E/DX2                !
 ! R2    R(1,11)                 1.5478         estimate D2E/DX2                !
 ! R3    R(1,19)                 1.394          estimate D2E/DX2                !
 ! R4    R(1,20)                 1.394          estimate D2E/DX2                !
 ! R5    R(2,3)                  1.3362         estimate D2E/DX2                !
 ! R6    R(2,9)                  1.4046         estimate D2E/DX2                !
 ! R7    R(3,4)                  1.088          estimate D2E/DX2                !
 ! R8    R(3,5)                  1.4207         estimate D2E/DX2                !
 ! R9    R(5,6)                  1.0862         estimate D2E/DX2                !
 ! R10   R(5,7)                  1.388          estimate D2E/DX2                !
 ! R11   R(7,8)                  1.0852         estimate D2E/DX2                !
 ! R12   R(7,9)                  1.4252         estimate D2E/DX2                !
 ! R13   R(9,10)                 1.4232         estimate D2E/DX2                !
 ! R14   R(10,18)                1.4232         estimate D2E/DX2                !
 ! R15   R(10,21)                1.4694         estimate D2E/DX2                !
 ! R16   R(11,12)                1.3362         estimate D2E/DX2                !
 ! R17   R(11,18)                1.4046         estimate D2E/DX2                !
 ! R18   R(12,13)                1.088          estimate D2E/DX2                !
 ! R19   R(12,14)                1.4207         estimate D2E/DX2                !
 ! R20   R(14,15)                1.0862         estimate D2E/DX2                !
 ! R21   R(14,16)                1.388          estimate D2E/DX2                !
 ! R22   R(16,17)                1.0852         estimate D2E/DX2                !
 ! R23   R(16,18)                1.4252         estimate D2E/DX2                !
 ! R24   R(21,22)                1.4063         estimate D2E/DX2                !
 ! R25   R(21,29)                1.4063         estimate D2E/DX2                !
 ! R26   R(22,23)                1.0911         estimate D2E/DX2                !
 ! R27   R(22,24)                1.3919         estimate D2E/DX2                !
 ! R28   R(24,25)                1.0905         estimate D2E/DX2                !
 ! R29   R(24,26)                1.3955         estimate D2E/DX2                !
 ! R30   R(26,27)                1.3955         estimate D2E/DX2                !
 ! R31   R(26,31)                1.0904         estimate D2E/DX2                !
 ! R32   R(27,28)                1.0905         estimate D2E/DX2                !
 ! R33   R(27,29)                1.3919         estimate D2E/DX2                !
 ! R34   R(29,30)                1.0911         estimate D2E/DX2                !
 ! A1    A(2,1,11)             104.8029         estimate D2E/DX2                !
 ! A2    A(2,1,19)             110.3647         estimate D2E/DX2                !
 ! A3    A(2,1,20)             110.728          estimate D2E/DX2                !
 ! A4    A(11,1,19)            110.7244         estimate D2E/DX2                !
 ! A5    A(11,1,20)            110.3616         estimate D2E/DX2                !
 ! A6    A(19,1,20)            109.7746         estimate D2E/DX2                !
 ! A7    A(1,2,3)              124.3671         estimate D2E/DX2                !
 ! A8    A(1,2,9)              127.2462         estimate D2E/DX2                !
 ! A9    A(3,2,9)              108.3492         estimate D2E/DX2                !
 ! A10   A(2,3,4)              120.6634         estimate D2E/DX2                !
 ! A11   A(2,3,5)              109.9017         estimate D2E/DX2                !
 ! A12   A(4,3,5)              129.4305         estimate D2E/DX2                !
 ! A13   A(3,5,6)              125.3781         estimate D2E/DX2                !
 ! A14   A(3,5,7)              107.0759         estimate D2E/DX2                !
 ! A15   A(6,5,7)              127.5415         estimate D2E/DX2                !
 ! A16   A(5,7,8)              127.7111         estimate D2E/DX2                !
 ! A17   A(5,7,9)              107.0298         estimate D2E/DX2                !
 ! A18   A(8,7,9)              125.2366         estimate D2E/DX2                !
 ! A19   A(2,9,7)              107.641          estimate D2E/DX2                !
 ! A20   A(2,9,10)             121.5294         estimate D2E/DX2                !
 ! A21   A(7,9,10)             130.7674         estimate D2E/DX2                !
 ! A22   A(9,10,18)            117.6471         estimate D2E/DX2                !
 ! A23   A(9,10,21)            121.1762         estimate D2E/DX2                !
 ! A24   A(18,10,21)           121.1767         estimate D2E/DX2                !
 ! A25   A(1,11,12)            124.3667         estimate D2E/DX2                !
 ! A26   A(1,11,18)            127.2459         estimate D2E/DX2                !
 ! A27   A(12,11,18)           108.3496         estimate D2E/DX2                !
 ! A28   A(11,12,13)           120.6639         estimate D2E/DX2                !
 ! A29   A(11,12,14)           109.9015         estimate D2E/DX2                !
 ! A30   A(13,12,14)           129.4303         estimate D2E/DX2                !
 ! A31   A(12,14,15)           125.3778         estimate D2E/DX2                !
 ! A32   A(12,14,16)           107.0757         estimate D2E/DX2                !
 ! A33   A(15,14,16)           127.542          estimate D2E/DX2                !
 ! A34   A(14,16,17)           127.7114         estimate D2E/DX2                !
 ! A35   A(14,16,18)           107.0296         estimate D2E/DX2                !
 ! A36   A(17,16,18)           125.2366         estimate D2E/DX2                !
 ! A37   A(10,18,11)           121.5285         estimate D2E/DX2                !
 ! A38   A(10,18,16)           130.7682         estimate D2E/DX2                !
 ! A39   A(11,18,16)           107.6413         estimate D2E/DX2                !
 ! A40   A(10,21,22)           120.7332         estimate D2E/DX2                !
 ! A41   A(10,21,29)           120.7327         estimate D2E/DX2                !
 ! A42   A(22,21,29)           118.5341         estimate D2E/DX2                !
 ! A43   A(21,22,23)           119.391          estimate D2E/DX2                !
 ! A44   A(21,22,24)           120.6277         estimate D2E/DX2                !
 ! A45   A(23,22,24)           119.9561         estimate D2E/DX2                !
 ! A46   A(22,24,25)           119.5858         estimate D2E/DX2                !
 ! A47   A(22,24,26)           120.2975         estimate D2E/DX2                !
 ! A48   A(25,24,26)           120.1144         estimate D2E/DX2                !
 ! A49   A(24,26,27)           119.6153         estimate D2E/DX2                !
 ! A50   A(24,26,31)           120.1922         estimate D2E/DX2                !
 ! A51   A(27,26,31)           120.1925         estimate D2E/DX2                !
 ! A52   A(26,27,28)           120.1147         estimate D2E/DX2                !
 ! A53   A(26,27,29)           120.2972         estimate D2E/DX2                !
 ! A54   A(28,27,29)           119.5858         estimate D2E/DX2                !
 ! A55   A(21,29,27)           120.6278         estimate D2E/DX2                !
 ! A56   A(21,29,30)           119.3908         estimate D2E/DX2                !
 ! A57   A(27,29,30)           119.9562         estimate D2E/DX2                !
 ! D1    D(11,1,2,3)          -177.4903         estimate D2E/DX2                !
 ! D2    D(11,1,2,9)             0.0157         estimate D2E/DX2                !
 ! D3    D(19,1,2,3)           -58.2471         estimate D2E/DX2                !
 ! D4    D(19,1,2,9)           119.2589         estimate D2E/DX2                !
 ! D5    D(20,1,2,3)            63.5103         estimate D2E/DX2                !
 ! D6    D(20,1,2,9)          -118.9838         estimate D2E/DX2                !
 ! D7    D(2,1,11,12)         -177.516          estimate D2E/DX2                !
 ! D8    D(2,1,11,18)           -0.0163         estimate D2E/DX2                !
 ! D9    D(19,1,11,12)          63.4828         estimate D2E/DX2                !
 ! D10   D(19,1,11,18)        -119.0175         estimate D2E/DX2                !
 ! D11   D(20,1,11,12)         -58.27           estimate D2E/DX2                !
 ! D12   D(20,1,11,18)         119.2296         estimate D2E/DX2                !
 ! D13   D(1,2,3,4)             -1.5489         estimate D2E/DX2                !
 ! D14   D(1,2,3,5)            177.7593         estimate D2E/DX2                !
 ! D15   D(9,2,3,4)           -179.4574         estimate D2E/DX2                !
 ! D16   D(9,2,3,5)             -0.1492         estimate D2E/DX2                !
 ! D17   D(1,2,9,7)           -177.4297         estimate D2E/DX2                !
 ! D18   D(1,2,9,10)            -0.0061         estimate D2E/DX2                !
 ! D19   D(3,2,9,7)              0.4016         estimate D2E/DX2                !
 ! D20   D(3,2,9,10)           177.8251         estimate D2E/DX2                !
 ! D21   D(2,3,5,6)           -179.4451         estimate D2E/DX2                !
 ! D22   D(2,3,5,7)             -0.1669         estimate D2E/DX2                !
 ! D23   D(4,3,5,6)             -0.2156         estimate D2E/DX2                !
 ! D24   D(4,3,5,7)            179.0626         estimate D2E/DX2                !
 ! D25   D(3,5,7,8)           -177.9269         estimate D2E/DX2                !
 ! D26   D(3,5,7,9)              0.4064         estimate D2E/DX2                !
 ! D27   D(6,5,7,8)              1.3308         estimate D2E/DX2                !
 ! D28   D(6,5,7,9)            179.6641         estimate D2E/DX2                !
 ! D29   D(5,7,9,2)             -0.4997         estimate D2E/DX2                !
 ! D30   D(5,7,9,10)          -177.5998         estimate D2E/DX2                !
 ! D31   D(8,7,9,2)            177.8861         estimate D2E/DX2                !
 ! D32   D(8,7,9,10)             0.7859         estimate D2E/DX2                !
 ! D33   D(2,9,10,18)           -0.0061         estimate D2E/DX2                !
 ! D34   D(2,9,10,21)          179.9934         estimate D2E/DX2                !
 ! D35   D(7,9,10,18)          176.7514         estimate D2E/DX2                !
 ! D36   D(7,9,10,21)           -3.2491         estimate D2E/DX2                !
 ! D37   D(9,10,18,11)           0.0055         estimate D2E/DX2                !
 ! D38   D(9,10,18,16)         176.7683         estimate D2E/DX2                !
 ! D39   D(21,10,18,11)       -179.994          estimate D2E/DX2                !
 ! D40   D(21,10,18,16)         -3.2312         estimate D2E/DX2                !
 ! D41   D(9,10,21,22)         -47.2002         estimate D2E/DX2                !
 ! D42   D(9,10,21,29)         132.7993         estimate D2E/DX2                !
 ! D43   D(18,10,21,22)        132.7992         estimate D2E/DX2                !
 ! D44   D(18,10,21,29)        -47.2013         estimate D2E/DX2                !
 ! D45   D(1,11,12,13)          -1.5548         estimate D2E/DX2                !
 ! D46   D(1,11,12,14)         177.751          estimate D2E/DX2                !
 ! D47   D(18,11,12,13)       -179.458          estimate D2E/DX2                !
 ! D48   D(18,11,12,14)         -0.1522         estimate D2E/DX2                !
 ! D49   D(1,11,18,10)           0.0074         estimate D2E/DX2                !
 ! D50   D(1,11,18,16)        -177.4204         estimate D2E/DX2                !
 ! D51   D(12,11,18,10)        177.8331         estimate D2E/DX2                !
 ! D52   D(12,11,18,16)          0.4053         estimate D2E/DX2                !
 ! D53   D(11,12,14,15)       -179.4431         estimate D2E/DX2                !
 ! D54   D(11,12,14,16)         -0.1659         estimate D2E/DX2                !
 ! D55   D(13,12,14,15)         -0.2162         estimate D2E/DX2                !
 ! D56   D(13,12,14,16)        179.0609         estimate D2E/DX2                !
 ! D57   D(12,14,16,17)       -177.9272         estimate D2E/DX2                !
 ! D58   D(12,14,16,18)          0.4078         estimate D2E/DX2                !
 ! D59   D(15,14,16,17)          1.3295         estimate D2E/DX2                !
 ! D60   D(15,14,16,18)        179.6645         estimate D2E/DX2                !
 ! D61   D(14,16,18,10)       -177.6076         estimate D2E/DX2                !
 ! D62   D(14,16,18,11)         -0.5028         estimate D2E/DX2                !
 ! D63   D(17,16,18,10)          0.7797         estimate D2E/DX2                !
 ! D64   D(17,16,18,11)        177.8845         estimate D2E/DX2                !
 ! D65   D(10,21,22,23)         -1.7396         estimate D2E/DX2                !
 ! D66   D(10,21,22,24)       -179.9112         estimate D2E/DX2                !
 ! D67   D(29,21,22,23)        178.2609         estimate D2E/DX2                !
 ! D68   D(29,21,22,24)          0.0893         estimate D2E/DX2                !
 ! D69   D(10,21,29,27)       -179.9115         estimate D2E/DX2                !
 ! D70   D(10,21,29,30)         -1.7394         estimate D2E/DX2                !
 ! D71   D(22,21,29,27)          0.088          estimate D2E/DX2                !
 ! D72   D(22,21,29,30)        178.2601         estimate D2E/DX2                !
 ! D73   D(21,22,24,25)        179.2659         estimate D2E/DX2                !
 ! D74   D(21,22,24,26)         -0.1781         estimate D2E/DX2                !
 ! D75   D(23,22,24,25)          1.1046         estimate D2E/DX2                !
 ! D76   D(23,22,24,26)       -178.3394         estimate D2E/DX2                !
 ! D77   D(22,24,26,27)          0.0885         estimate D2E/DX2                !
 ! D78   D(22,24,26,31)       -179.9111         estimate D2E/DX2                !
 ! D79   D(25,24,26,27)       -179.3526         estimate D2E/DX2                !
 ! D80   D(25,24,26,31)          0.6477         estimate D2E/DX2                !
 ! D81   D(24,26,27,28)       -179.3524         estimate D2E/DX2                !
 ! D82   D(24,26,27,29)          0.0886         estimate D2E/DX2                !
 ! D83   D(31,26,27,28)          0.6472         estimate D2E/DX2                !
 ! D84   D(31,26,27,29)       -179.9118         estimate D2E/DX2                !
 ! D85   D(26,27,29,21)         -0.1775         estimate D2E/DX2                !
 ! D86   D(26,27,29,30)       -178.3393         estimate D2E/DX2                !
 ! D87   D(28,27,29,21)        179.2664         estimate D2E/DX2                !
 ! D88   D(28,27,29,30)          1.1046         estimate D2E/DX2                !
 --------------------------------------------------------------------------------
 Trust Radius=3.00D-01 FncErr=1.00D-07 GrdErr=1.00D-06
 Number of steps in this run=    186 maximum allowed number of steps=    186.
 GradGradGradGradGradGradGradGradGradGradGradGradGradGradGradGradGradGrad

 Leave Link  103 at Fri Sep 28 13:38:09 2018, MaxMem= 12079595520 cpu:        18.0
 (Enter /scratch/prg/gaussian/bin/g09/l202.exe)
                          Input orientation:                          
 ---------------------------------------------------------------------
 Center     Atomic      Atomic             Coordinates (Angstroms)
 Number     Number       Type             X           Y           Z
 ---------------------------------------------------------------------
      1          5           0        0.012063   -0.000393   -0.007723
      2          7           0        0.008053   -0.045610    1.539363
      3          6           0        1.108800   -0.044600    2.296843
      4          1           0        2.096389   -0.035866    1.840470
      5          6           0        0.749926   -0.039973    3.671415
      6          1           0        1.447940   -0.029680    4.503576
      7          6           0       -0.636833   -0.034282    3.730584
      8          1           0       -1.263336    0.001339    4.616002
      9          6           0       -1.111988   -0.045163    2.386965
     10          6           0       -2.436981    0.000017    1.869398
     11          7           0       -1.482950    0.045406   -0.405885
     12          6           0       -1.928360    0.044635   -1.665653
     13          1           0       -1.231035    0.035786   -2.500725
     14          6           0       -3.348977    0.040345   -1.676306
     15          1           0       -3.971161    0.030263   -2.566590
     16          6           0       -3.766474    0.034635   -0.352561
     17          1           0       -4.784281   -0.000774    0.022340
     18          6           0       -2.592475    0.045199    0.455417
     19          9           0        0.677610    1.138710   -0.458023
     20          9           0        0.619229   -1.139980   -0.533056
     21          6           0       -3.603246    0.000004    2.763326
     22          6           0       -3.694367   -0.916769    3.825760
     23          1           0       -2.901569   -1.652984    3.967257
     24          6           0       -4.800980   -0.916047    4.670087
     25          1           0       -4.859692   -1.642420    5.481401
     26          6           0       -5.835375   -0.000009    4.474213
     27          6           0       -5.755746    0.916039    3.424462
     28          1           0       -6.554452    1.642408    3.270344
     29          6           0       -4.652867    0.916777    2.575260
     30          1           0       -4.583499    1.652999    1.772934
     31          1           0       -6.700770   -0.000015    5.137529
 ---------------------------------------------------------------------
                    Distance matrix (angstroms):
                    1          2          3          4          5
     1  B    0.000000
     2  N    1.547752   0.000000
     3  C    2.552609   1.336196   0.000000
     4  H    2.785945   2.109954   1.087973   0.000000
     5  C    3.752608   2.257444   1.420655   2.272738   0.000000
     6  H    4.734387   3.295465   2.232691   2.740923   1.086196
     7  C    3.794358   2.284175   2.258972   3.323106   1.388032
     8  H    4.796403   3.329316   3.317776   4.358063   2.224225
     9  C    2.645756   1.404607   2.222616   3.254601   2.261982
    10  C    3.085677   2.467630   3.571731   4.533604   3.661317
    11  N    1.547803   2.452624   3.745665   4.226628   4.649452
    12  C    2.552646   3.745660   4.993363   5.338350   5.971990
    13  H    2.785976   4.226615   5.338347   5.470179   6.482689
    14  C    3.752655   4.649469   5.972010   6.482710   6.738366
    15  H    4.734429   5.718282   7.033107   7.499448   7.823446
    16  C    3.794401   4.222898   5.549227   6.259993   6.049448
    17  H    4.796438   5.026911   6.316937   7.116913   6.629082
    18  C    2.645788   2.818853   4.135015   4.889825   4.639132
    19  F    1.394015   2.416707   3.029098   2.945443   4.294972
    20  F    1.394017   2.422004   3.073738   3.005777   4.347950
    21  C    4.555126   3.813351   4.735290   5.773975   4.447059
    22  C    5.410449   4.437842   5.115533   6.184676   4.532586
    23  H    5.198151   4.116336   4.632520   5.667264   4.002842
    24  C    6.773899   5.803955   6.427846   7.507007   5.707662
    25  H    7.520687   6.464086   6.951067   8.014016   6.108330
    26  C    7.367515   6.539195   7.277671   8.357677   6.634174
    27  C    6.774021   6.140012   7.022560   8.066671   6.580176
    28  H    7.520880   6.993724   7.906904   8.927384   7.506344
    29  C    5.410598   4.870672   5.847954   6.855647   5.595275
    30  H    5.198426   4.901242   5.963102   6.890409   5.908960
    31  H    8.457881   7.612962   8.310287   9.394780   7.593679
                    6          7          8          9         10
     6  H    0.000000
     7  C    2.223469   0.000000
     8  H    2.713783   1.085237   0.000000
     9  C    3.321673   1.425203   2.234653   0.000000
    10  C    4.693867   2.589541   2.986851   1.423209   0.000000
    11  N    5.718266   4.222871   5.026880   2.818834   2.467620
    12  C    7.033087   5.549202   6.316908   4.135002   3.571732
    13  H    7.499428   6.259968   7.116884   4.889810   4.533603
    14  C    7.823443   6.049442   6.629069   4.639138   3.661336
    15  H    8.908282   7.125750   7.676118   5.719988   4.693891
    16  C    7.125750   5.145044   5.563580   3.815451   2.589566
    17  H    7.676125   5.563589   5.787814   4.367970   2.986878
    18  C    5.719978   3.815439   4.367952   2.435341   1.423222
    19  F    5.155192   4.544018   5.550371   3.563450   4.051443
    20  F    5.223714   4.580271   5.599952   3.566828   4.051148
    21  C    5.342643   3.120316   2.984558   2.519931   1.469449
    22  C    5.262099   3.183764   2.716122   3.081965   2.499774
    23  H    4.673434   2.793786   2.416912   2.878370   2.710953
    24  C    6.313666   4.358933   3.655058   4.424901   3.777767
    25  H    6.583562   4.846030   4.047794   5.115863   4.649053
    26  C    7.283435   5.251571   4.574237   5.164206   4.281839
    27  C    7.345200   5.215371   4.736897   4.854359   3.777767
    28  H    8.267709   6.167765   5.700861   5.766166   4.649050
    29  C    6.467923   4.285769   4.060982   3.674045   2.499768
    30  H    6.831257   4.717572   4.672740   3.913078   2.710940
    31  H    8.173387   6.225110   5.462388   6.229135   5.372204
                   11         12         13         14         15
    11  N    0.000000
    12  C    1.336191   0.000000
    13  H    2.109955   1.087973   0.000000
    14  C    2.257444   1.420663   2.272744   0.000000
    15  H    3.295462   2.232696   2.740923   1.086195   0.000000
    16  C    2.284172   2.258976   3.323110   1.388034   2.223475
    17  H    3.329309   3.317780   4.358067   2.224227   2.713795
    18  C    1.404595   2.222608   3.254594   2.261982   3.321675
    19  F    2.421993   3.073508   3.005328   4.347876   5.223579
    20  F    2.416706   3.029241   2.945781   4.294979   5.155231
    21  C    3.813347   4.735303   5.773985   4.447090   5.342685
    22  C    4.870623   5.847965   6.855638   5.595363   6.468046
    23  H    4.901161   5.963113   6.890386   5.909090   6.831435
    24  C    6.139968   7.022568   8.066662   6.580251   7.345311
    25  H    6.993660   7.906911   8.927366   7.506446   8.267860
    26  C    6.539191   7.277686   8.357690   6.634206   7.283482
    27  C    5.803994   6.427869   7.507043   5.707645   6.313640
    28  H    6.464148   6.951091   8.014065   6.108275   6.583480
    29  C    4.437892   5.115556   6.184715   4.532557   5.262058
    30  H    4.116432   4.632546   5.667323   4.002743   4.673296
    31  H    7.612959   8.310305   9.394797   7.593714   8.173441
                   16         17         18         19         20
    16  C    0.000000
    17  H    1.085235   0.000000
    18  C    1.425207   2.234655   0.000000
    19  F    4.580392   5.600127   3.567015   0.000000
    20  F    4.543863   5.550151   3.563253   2.280672   0.000000
    21  C    3.120352   2.984602   2.519949   5.477177   5.476768
    22  C    4.285876   4.061153   3.674066   6.456777   6.136466
    23  H    4.717727   4.672983   3.913104   6.339336   5.736899
    24  C    5.215457   4.737041   4.854372   7.780391   7.516749
    25  H    6.167881   5.701056   5.766181   8.583307   8.151363
    26  C    5.251600   4.574273   5.164220   8.248794   8.248284
    27  C    4.358897   3.654959   4.424915   7.517403   7.780069
    28  H    4.845946   4.047602   5.115873   8.152126   8.583078
    29  C    3.183709   2.715984   3.081980   6.137104   6.456537
    30  H    2.793629   2.416580   2.878376   5.737676   6.339298
    31  H    6.225141   5.462425   6.229150   9.329919   9.329386
                   21         22         23         24         25
    21  C    0.000000
    22  C    1.406251   0.000000
    23  H    2.161983   1.091129   0.000000
    24  C    2.430937   1.391934   2.155182   0.000000
    25  H    3.415281   2.150744   2.475276   1.090548   0.000000
    26  C    2.812389   2.417614   3.405371   1.395516   2.159606
    27  C    2.430942   2.787384   3.878251   2.412405   3.402885
    28  H    3.415285   3.877881   4.968788   3.402886   4.307096
    29  C    1.406252   2.417512   3.407106   2.787379   3.877876
    30  H    2.161982   3.407104   4.309694   3.878246   4.968782
    31  H    3.902755   3.405824   4.305319   2.160282   2.491046
                   26         27         28         29         30
    26  C    0.000000
    27  C    1.395515   0.000000
    28  H    2.159608   1.090548   0.000000
    29  C    2.417611   1.391936   2.150746   0.000000
    30  H    3.405369   2.155184   2.475279   1.091129   0.000000
    31  H    1.090365   2.160283   2.491052   3.405824   4.305321
                   31
    31  H    0.000000
 Symmetry turned off by external request.
 Stoichiometry    C15H11BF2N2
 Framework group  C1[X(C15H11BF2N2)]
 Deg. of freedom    87
 Full point group                 C1      NOp   1
 Rotational constants (GHZ):      0.5818207      0.2785780      0.2029997
 Leave Link  202 at Fri Sep 28 13:38:18 2018, MaxMem= 12079595520 cpu:        18.0
 (Enter /scratch/prg/gaussian/bin/g09/l301.exe)
 Standard basis: CC-pVDZ (5D, 7F)
 Ernie: Thresh=  0.10000D-02 Tol=  0.10000D-05 Strict=F.
 Ernie:  40 primitive shells out of 495 were deleted.
   335 basis functions,   737 primitive gaussians,   355 cartesian basis functions
    69 alpha electrons       69 beta electrons
       nuclear repulsion energy      1465.1647628163 Hartrees.
 IExCor= 4336 DFT=T Ex+Corr=M062X ExCW=0 ScaHFX=  0.540000
 ScaDFX=  1.000000  1.000000  1.000000  1.000000 ScalE2=  1.000000  1.000000
 IRadAn=      5 IRanWt=     -1 IRanGd=            0 ICorTp=0 IEmpDi=  4
 NAtoms=   31 NActive=   31 NUniq=   31 SFac= 1.00D+00 NAtFMM=   60 NAOKFM=F Big=F
 Integral buffers will be    131072 words long.
 Regular integral format.
 Two-electron integral symmetry is turned off.
 ------------------------------------------------------------------------------
 Polarizable Continuum Model (PCM)
 =================================
 Model                : C-PCM.
 Atomic radii         : UFF (Universal Force Field).
 Polarization charges : Total charges.
 Charge compensation  : None.
 Solution method      : On-the-fly selection.
 Cavity type          : Scaled VdW (van der Waals Surface) (Alpha=1.100).
 Cavity algorithm     : GePol (No added spheres)
                        Default sphere list used, NSphG=   31.
                        Lebedev-Laikov grids with approx.  5.0 points / Ang**2.
                        Smoothing algorithm: Karplus/York (Gamma=1.0000).
                        Polarization charges: spherical gaussians, with
                                              point-specific exponents (IZeta= 3).
                        Self-potential: point-specific (ISelfS= 7).
                        Self-field    : sphere-specific E.n sum rule (ISelfD= 2).
 1st derivatives      : Analytical E(r).r(x)/FMM algorithm (CHGder, D1EAlg=3).
                        Cavity 1st derivative terms included.
 Solvent              : Toluene, Eps=   2.374100 Eps(inf)=   2.238315
 ------------------------------------------------------------------------------
 GePol: Number of generator spheres                  =      31
 GePol: Total number of spheres                      =      31
 GePol: Number of exposed spheres                    =      31 (100.00%)
 GePol: Number of points                             =    2478
 GePol: Average weight of points                     =       0.13
 GePol: Minimum weight of points                     =   0.39D-09
 GePol: Maximum weight of points                     =    0.20577
 GePol: Number of points with low weight             =     172
 GePol: Fraction of low-weight points (<1% of avg)   =       6.94%
 GePol: Cavity surface area                          =    315.317 Ang**2
 GePol: Cavity volume                                =    347.613 Ang**3
 Leave Link  301 at Fri Sep 28 13:38:33 2018, MaxMem= 12079595520 cpu:        77.1
 (Enter /scratch/prg/gaussian/bin/g09/linda-exe/l302.exel)
 NPDir=0 NMtPBC=     1 NCelOv=     1 NCel=       1 NClECP=     1 NCelD=      1
         NCelK=      1 NCelE2=     1 NClLst=     1 CellRange=     0.0.
 One-electron integrals computed using PRISM.
 NBasis=   335 RedAO= T EigKep=  2.70D-04  NBF=   335
 NBsUse=   335 1.00D-06 EigRej= -1.00D+00 NBFU=   335
 Precomputing XC quadrature grid using
 IXCGrd= 4 IRadAn=           5 IRanWt=          -1 IRanGd=           0 AccXCQ= 0.00D+00.
 Generated NRdTot=       0 NPtTot=           0 NUsed=           0 NTot=          32
 NSgBfM=   354   354   354   354   354 MxSgAt=    31 MxSgA2=    31.
 Leave Link  302 at Fri Sep 28 13:38:37 2018, MaxMem= 12079595520 cpu:        10.3
 (Enter /scratch/prg/gaussian/bin/g09/l308.exe)
 Leave Link  308 at Fri Sep 28 13:38:40 2018, MaxMem= 12079595520 cpu:        13.0
 (Enter /scratch/prg/gaussian/bin/g09/l303.exe)
 DipDrv:  MaxL=1.
 Leave Link  303 at Fri Sep 28 13:38:42 2018, MaxMem= 12079595520 cpu:         7.2
 (Enter /scratch/prg/gaussian/bin/g09/linda-exe/l401.exel)
 ExpMin= 9.54D-02 ExpMax= 1.47D+04 ExpMxC= 5.03D+02 IAcc=3 IRadAn=         5 AccDes= 0.00D+00
 Harris functional with IExCor= 1009 and IRadAn=       5 diagonalized for initial guess.
 HarFok:  IExCor= 1009 AccDes= 0.00D+00 IRadAn=         5 IDoV= 1 UseB2=F ITyADJ=14
 ICtDFT=  3500011 ScaDFX=  1.000000  1.000000  1.000000  1.000000
 FoFCou: FMM=F IPFlag=           0 FMFlag=      100000 FMFlg1=           0
         NFxFlg=           0 DoJE=T BraDBF=F KetDBF=T FulRan=T
         wScrn=  0.000000 ICntrl=     500 IOpCl=  0 I1Cent=   200000004 NGrid=           0
         NMat0=    1 NMatS0=      1 NMatT0=    0 NMatD0=    1 NMtDS0=    0 NMtDT0=    0
 Symmetry not used in FoFCou.
 Harris En= -911.574894700217    
 JPrj=0 DoOrth=F DoCkMO=F.
 Leave Link  401 at Fri Sep 28 13:38:45 2018, MaxMem= 12079595520 cpu:        20.0
 (Enter /scratch/prg/gaussian/bin/g09/linda-exe/l502.exel)
 Closed shell SCF:
 Using DIIS extrapolation, IDIIS=  1040.
 Two-electron integral symmetry not used.
 Keep R1 ints in memory in canonical form, NReq=1606709247.
 IVT=      403077 IEndB=      403077 NGot= 12079595520 MDV= 10495445104
 LenX= 10495445104 LenY= 10495318638
 Requested convergence on RMS density matrix=1.00D-08 within 128 cycles.
 Requested convergence on MAX density matrix=1.00D-06.
 Requested convergence on             energy=1.00D-06.
 No special actions if energy rises.
 FoFCou: FMM=F IPFlag=           0 FMFlag=           0 FMFlg1=           0
         NFxFlg=           0 DoJE=F BraDBF=F KetDBF=F FulRan=T
         wScrn=  0.000000 ICntrl=     600 IOpCl=  0 I1Cent=           0 NGrid=           0
         NMat0=    1 NMatS0=  56280 NMatT0=    0 NMatD0=    1 NMtDS0=    0 NMtDT0=    0
 Symmetry not used in FoFCou.

 Cycle   1  Pass 1  IDiag  1:
 Inv3:  Mode=1 IEnd=    18421452.
 Iteration    1 A*A^-1 deviation from unit magnitude is 7.99D-15 for   2179.
 Iteration    1 A*A^-1 deviation from orthogonality  is 4.77D-15 for   2067     67.
 Iteration    1 A^-1*A deviation from unit magnitude is 8.22D-15 for   2179.
 Iteration    1 A^-1*A deviation from orthogonality  is 4.16D-15 for   1365    584.
 E= -911.871169212545    
 DIIS: error= 2.82D-02 at cycle   1 NSaved=   1.
 NSaved= 1 IEnMin= 1 EnMin= -911.871169212545     IErMin= 1 ErrMin= 2.82D-02
 ErrMax= 2.82D-02  0.00D+00 EMaxC= 1.00D-01 BMatC= 3.32D-01 BMatP= 3.32D-01
 IDIUse=3 WtCom= 7.18D-01 WtEn= 2.82D-01
 Coeff-Com:  0.100D+01
 Coeff-En:   0.100D+01
 Coeff:      0.100D+01
 Gap=     0.173 Goal=   None    Shift=    0.000
 GapD=    0.173 DampG=1.000 DampE=0.500 DampFc=0.5000 IDamp=-1.
 Damping current iteration by 5.00D-01
 RMSDP=3.58D-03 MaxDP=9.79D-02              OVMax= 1.49D-01

 Cycle   2  Pass 1  IDiag  1:
 E= -912.029511482507     Delta-E=       -0.158342269961 Rises=F Damp=T
 DIIS: error= 8.45D-03 at cycle   2 NSaved=   2.
 NSaved= 2 IEnMin= 2 EnMin= -912.029511482507     IErMin= 2 ErrMin= 8.45D-03
 ErrMax= 8.45D-03  0.00D+00 EMaxC= 1.00D-01 BMatC= 2.88D-02 BMatP= 3.32D-01
 IDIUse=3 WtCom= 9.16D-01 WtEn= 8.45D-02
 Coeff-Com: -0.923D-01 0.109D+01
 Coeff-En:   0.000D+00 0.100D+01
 Coeff:     -0.845D-01 0.108D+01
 Gap=     0.183 Goal=   None    Shift=    0.000
 RMSDP=1.26D-03 MaxDP=5.90D-02 DE=-1.58D-01 OVMax= 9.30D-02

 Cycle   3  Pass 1  IDiag  1:
 E= -912.171669818728     Delta-E=       -0.142158336221 Rises=F Damp=F
 DIIS: error= 6.13D-03 at cycle   3 NSaved=   3.
 NSaved= 3 IEnMin= 3 EnMin= -912.171669818728     IErMin= 3 ErrMin= 6.13D-03
 ErrMax= 6.13D-03  0.00D+00 EMaxC= 1.00D-01 BMatC= 1.50D-02 BMatP= 2.88D-02
 IDIUse=3 WtCom= 9.39D-01 WtEn= 6.13D-02
 Coeff-Com: -0.108D+00 0.482D+00 0.625D+00
 Coeff-En:   0.000D+00 0.000D+00 0.100D+01
 Coeff:     -0.101D+00 0.453D+00 0.648D+00
 Gap=     0.172 Goal=   None    Shift=    0.000
 RMSDP=4.86D-04 MaxDP=2.20D-02 DE=-1.42D-01 OVMax= 4.95D-02

 Cycle   4  Pass 1  IDiag  1:
 E= -912.183294195754     Delta-E=       -0.011624377027 Rises=F Damp=F
 DIIS: error= 3.82D-03 at cycle   4 NSaved=   4.
 NSaved= 4 IEnMin= 4 EnMin= -912.183294195754     IErMin= 4 ErrMin= 3.82D-03
 ErrMax= 3.82D-03  0.00D+00 EMaxC= 1.00D-01 BMatC= 3.20D-03 BMatP= 1.50D-02
 IDIUse=3 WtCom= 9.62D-01 WtEn= 3.82D-02
 Coeff-Com: -0.363D-01 0.100D+00 0.351D+00 0.585D+00
 Coeff-En:   0.000D+00 0.000D+00 0.181D+00 0.819D+00
 Coeff:     -0.349D-01 0.965D-01 0.344D+00 0.594D+00
 Gap=     0.175 Goal=   None    Shift=    0.000
 RMSDP=1.76D-04 MaxDP=8.38D-03 DE=-1.16D-02 OVMax= 2.06D-02

 Cycle   5  Pass 1  IDiag  1:
 E= -912.186474362617     Delta-E=       -0.003180166863 Rises=F Damp=F
 DIIS: error= 4.70D-04 at cycle   5 NSaved=   5.
 NSaved= 5 IEnMin= 5 EnMin= -912.186474362617     IErMin= 5 ErrMin= 4.70D-04
 ErrMax= 4.70D-04  0.00D+00 EMaxC= 1.00D-01 BMatC= 1.11D-04 BMatP= 3.20D-03
 IDIUse=3 WtCom= 9.95D-01 WtEn= 4.70D-03
 Coeff-Com: -0.856D-02 0.141D-01 0.108D+00 0.254D+00 0.633D+00
 Coeff-En:   0.000D+00 0.000D+00 0.000D+00 0.000D+00 0.100D+01
 Coeff:     -0.852D-02 0.140D-01 0.107D+00 0.253D+00 0.634D+00
 Gap=     0.175 Goal=   None    Shift=    0.000
 RMSDP=3.34D-05 MaxDP=2.05D-03 DE=-3.18D-03 OVMax= 3.60D-03

 Cycle   6  Pass 1  IDiag  1:
 E= -912.186576835378     Delta-E=       -0.000102472760 Rises=F Damp=F
 DIIS: error= 1.37D-04 at cycle   6 NSaved=   6.
 NSaved= 6 IEnMin= 6 EnMin= -912.186576835378     IErMin= 6 ErrMin= 1.37D-04
 ErrMax= 1.37D-04  0.00D+00 EMaxC= 1.00D-01 BMatC= 8.08D-06 BMatP= 1.11D-04
 IDIUse=3 WtCom= 9.99D-01 WtEn= 1.37D-03
 Coeff-Com: -0.162D-02 0.343D-03 0.254D-01 0.748D-01 0.280D+00 0.621D+00
 Coeff-En:   0.000D+00 0.000D+00 0.000D+00 0.000D+00 0.000D+00 0.100D+01
 Coeff:     -0.161D-02 0.342D-03 0.254D-01 0.747D-01 0.280D+00 0.621D+00
 Gap=     0.175 Goal=   None    Shift=    0.000
 RMSDP=9.14D-06 MaxDP=3.49D-04 DE=-1.02D-04 OVMax= 8.58D-04

 Cycle   7  Pass 1  IDiag  1:
 E= -912.186584547393     Delta-E=       -0.000007712016 Rises=F Damp=F
 DIIS: error= 5.26D-05 at cycle   7 NSaved=   7.
 NSaved= 7 IEnMin= 7 EnMin= -912.186584547393     IErMin= 7 ErrMin= 5.26D-05
 ErrMax= 5.26D-05  0.00D+00 EMaxC= 1.00D-01 BMatC= 7.54D-07 BMatP= 8.08D-06
 IDIUse=1 WtCom= 1.00D+00 WtEn= 0.00D+00
 Coeff-Com:  0.211D-03-0.138D-02-0.719D-03 0.506D-02 0.553D-01 0.249D+00
 Coeff-Com:  0.693D+00
 Coeff:      0.211D-03-0.138D-02-0.719D-03 0.506D-02 0.553D-01 0.249D+00
 Coeff:      0.693D+00
 Gap=     0.175 Goal=   None    Shift=    0.000
 RMSDP=3.84D-06 MaxDP=1.67D-04 DE=-7.71D-06 OVMax= 4.23D-04

 Cycle   8  Pass 1  IDiag  1:
 E= -912.186585365372     Delta-E=       -0.000000817978 Rises=F Damp=F
 DIIS: error= 2.83D-05 at cycle   8 NSaved=   8.
 NSaved= 8 IEnMin= 8 EnMin= -912.186585365372     IErMin= 8 ErrMin= 2.83D-05
 ErrMax= 2.83D-05  0.00D+00 EMaxC= 1.00D-01 BMatC= 1.69D-07 BMatP= 7.54D-07
 IDIUse=1 WtCom= 1.00D+00 WtEn= 0.00D+00
 Coeff-Com:  0.485D-03-0.837D-03-0.583D-02-0.135D-01-0.314D-01-0.203D-01
 Coeff-Com:  0.339D+00 0.732D+00
 Coeff:      0.485D-03-0.837D-03-0.583D-02-0.135D-01-0.314D-01-0.203D-01
 Coeff:      0.339D+00 0.732D+00
 Gap=     0.175 Goal=   None    Shift=    0.000
 RMSDP=1.69D-06 MaxDP=9.77D-05 DE=-8.18D-07 OVMax= 2.09D-04

 Cycle   9  Pass 1  IDiag  1:
 E= -912.186585580136     Delta-E=       -0.000000214765 Rises=F Damp=F
 DIIS: error= 3.08D-06 at cycle   9 NSaved=   9.
 NSaved= 9 IEnMin= 9 EnMin= -912.186585580136     IErMin= 9 ErrMin= 3.08D-06
 ErrMax= 3.08D-06  0.00D+00 EMaxC= 1.00D-01 BMatC= 6.09D-09 BMatP= 1.69D-07
 IDIUse=1 WtCom= 1.00D+00 WtEn= 0.00D+00
 Coeff-Com:  0.127D-03-0.153D-03-0.161D-02-0.417D-02-0.119D-01-0.214D-01
 Coeff-Com:  0.662D-01 0.215D+00 0.758D+00
 Coeff:      0.127D-03-0.153D-03-0.161D-02-0.417D-02-0.119D-01-0.214D-01
 Coeff:      0.662D-01 0.215D+00 0.758D+00
 Gap=     0.175 Goal=   None    Shift=    0.000
 RMSDP=3.90D-07 MaxDP=1.46D-05 DE=-2.15D-07 OVMax= 4.68D-05

 Cycle  10  Pass 1  IDiag  1:
 E= -912.186585589208     Delta-E=       -0.000000009072 Rises=F Damp=F
 DIIS: error= 1.59D-06 at cycle  10 NSaved=  10.
 NSaved=10 IEnMin=10 EnMin= -912.186585589208     IErMin=10 ErrMin= 1.59D-06
 ErrMax= 1.59D-06  0.00D+00 EMaxC= 1.00D-01 BMatC= 1.41D-09 BMatP= 6.09D-09
 IDIUse=1 WtCom= 1.00D+00 WtEn= 0.00D+00
 Coeff-Com: -0.138D-04 0.502D-04 0.121D-03 0.104D-03-0.749D-03-0.706D-02
 Coeff-Com: -0.175D-01-0.205D-01 0.307D+00 0.739D+00
 Coeff:     -0.138D-04 0.502D-04 0.121D-03 0.104D-03-0.749D-03-0.706D-02
 Coeff:     -0.175D-01-0.205D-01 0.307D+00 0.739D+00
 Gap=     0.175 Goal=   None    Shift=    0.000
 RMSDP=1.65D-07 MaxDP=6.99D-06 DE=-9.07D-09 OVMax= 2.02D-05

 Cycle  11  Pass 1  IDiag  1:
 E= -912.186585591202     Delta-E=       -0.000000001994 Rises=F Damp=F
 DIIS: error= 4.41D-07 at cycle  11 NSaved=  11.
 NSaved=11 IEnMin=11 EnMin= -912.186585591202     IErMin=11 ErrMin= 4.41D-07
 ErrMax= 4.41D-07  0.00D+00 EMaxC= 1.00D-01 BMatC= 1.52D-10 BMatP= 1.41D-09
 IDIUse=1 WtCom= 1.00D+00 WtEn= 0.00D+00
 Coeff-Com: -0.237D-04 0.404D-04 0.271D-03 0.647D-03 0.143D-02 0.144D-03
 Coeff-Com: -0.150D-01-0.429D-01 0.713D-02 0.271D+00 0.777D+00
 Coeff:     -0.237D-04 0.404D-04 0.271D-03 0.647D-03 0.143D-02 0.144D-03
 Coeff:     -0.150D-01-0.429D-01 0.713D-02 0.271D+00 0.777D+00
 Gap=     0.175 Goal=   None    Shift=    0.000
 RMSDP=6.38D-08 MaxDP=1.68D-06 DE=-1.99D-09 OVMax= 7.15D-06

 Cycle  12  Pass 1  IDiag  1:
 E= -912.186585591431     Delta-E=       -0.000000000229 Rises=F Damp=F
 DIIS: error= 1.31D-07 at cycle  12 NSaved=  12.
 NSaved=12 IEnMin=12 EnMin= -912.186585591431     IErMin=12 ErrMin= 1.31D-07
 ErrMax= 1.31D-07  0.00D+00 EMaxC= 1.00D-01 BMatC= 7.64D-12 BMatP= 1.52D-10
 IDIUse=1 WtCom= 1.00D+00 WtEn= 0.00D+00
 Coeff-Com: -0.574D-05 0.855D-05 0.646D-04 0.168D-03 0.423D-03 0.417D-03
 Coeff-Com: -0.205D-02-0.105D-01-0.129D-01 0.378D-01 0.206D+00 0.780D+00
 Coeff:     -0.574D-05 0.855D-05 0.646D-04 0.168D-03 0.423D-03 0.417D-03
 Coeff:     -0.205D-02-0.105D-01-0.129D-01 0.378D-01 0.206D+00 0.780D+00
 Gap=     0.175 Goal=   None    Shift=    0.000
 RMSDP=1.40D-08 MaxDP=3.68D-07 DE=-2.29D-10 OVMax= 2.25D-06

 Cycle  13  Pass 1  IDiag  1:
 E= -912.186585591402     Delta-E=        0.000000000029 Rises=F Damp=F
 DIIS: error= 5.31D-08 at cycle  13 NSaved=  13.
 NSaved=13 IEnMin=12 EnMin= -912.186585591431     IErMin=13 ErrMin= 5.31D-08
 ErrMax= 5.31D-08  0.00D+00 EMaxC= 1.00D-01 BMatC= 1.88D-12 BMatP= 7.64D-12
 IDIUse=1 WtCom= 1.00D+00 WtEn= 0.00D+00
 Coeff-Com:  0.768D-06-0.180D-05-0.100D-04-0.184D-04-0.133D-04 0.138D-03
 Coeff-Com:  0.125D-02 0.875D-03-0.760D-02-0.235D-01-0.350D-01 0.308D+00
 Coeff-Com:  0.756D+00
 Coeff:      0.768D-06-0.180D-05-0.100D-04-0.184D-04-0.133D-04 0.138D-03
 Coeff:      0.125D-02 0.875D-03-0.760D-02-0.235D-01-0.350D-01 0.308D+00
 Coeff:      0.756D+00
 Gap=     0.175 Goal=   None    Shift=    0.000
 RMSDP=6.96D-09 MaxDP=1.53D-07 DE= 2.91D-11 OVMax= 9.18D-07

 Error on total polarization charges =  0.00670
 SCF Done:  E(RM062X) =  -912.186585591     A.U. after   13 cycles
            NFock= 13  Conv=0.70D-08     -V/T= 2.0063
 KE= 9.064466064055D+02 PE=-5.059859641982D+03 EE= 1.776061687169D+03
 Leave Link  502 at Fri Sep 28 13:42:52 2018, MaxMem= 12079595520 cpu:      1688.1
 (Enter /scratch/prg/gaussian/bin/g09/l801.exe)
 DoSCS=F DFT=T ScalE2(SS,OS)=  1.000000  1.000000
 ExpMin= 9.54D-02 ExpMax= 1.47D+04 ExpMxC= 5.03D+02 IAcc=3 IRadAn=         5 AccDes= 0.00D+00
 HarFok:  IExCor=  205 AccDes= 0.00D+00 IRadAn=         5 IDoV=-2 UseB2=F ITyADJ=14
 ICtDFT= 12500011 ScaDFX=  1.000000  1.000000  1.000000  1.000000
 Largest valence mixing into a core orbital is  8.01D-05
 Largest core mixing into a valence orbital is  4.80D-05
 Range of M.O.s used for correlation:    21   335
 NBasis=   335 NAE=    69 NBE=    69 NFC=    20 NFV=     0
 NROrb=    315 NOA=    49 NOB=    49 NVA=   266 NVB=   266

 **** Warning!!: The largest alpha MO coefficient is  0.12249377D+02

 Leave Link  801 at Fri Sep 28 13:44:28 2018, MaxMem= 12079595520 cpu:       492.5
 (Enter /scratch/prg/gaussian/bin/g09/linda-exe/l914.exel)
 RHF ground state
 MDV= 12079595520 DFT=T DoStab=F Mixed=T DoRPA=T DoScal=F NonHer=T
 NEqPCM:  Using equilibrium solvation (IEInf=0, Eps=   2.3741, EpsInf=   2.2383)
 Keep R1, R2, and R3 ints in memory in canonical form, NReq=4923259439.
 FoFCou: FMM=F IPFlag=           0 FMFlag=           0 FMFlg1=           0
         NFxFlg=           0 DoJE=F BraDBF=F KetDBF=F FulRan=T
         wScrn=  0.000000 ICntrl=     600 IOpCl=  0 I1Cent=           0 NGrid=           0
         NMat0=    1 NMatS0=  56280 NMatT0=    0 NMatD0=    1 NMtDS0=    0 NMtDT0=    0
 Symmetry not used in FoFCou.
 Making orbital integer symmetry assigments:
    24 initial guesses have been made.
 Convergence on wavefunction:    0.000001000000000
 Davidson Disk Diagonalization:  ConvIn= 1.00D-06 SkipCon=T Conv= 1.00D-06.
 Max sub-space:   200 roots to seek:    24 dimension of matrix:        26068
 Iteration     1 Dimension    24 NMult     0 NNew     24
 CISAX will form    24 AO SS matrices at one time.
 NMat=    24 NSing=    24 JSym2X= 0.
 Excitation Energies [eV] at current iteration:
 Root      1 :     3.392798372044380
 Root      2 :     4.250844125088732
 Root      3 :     4.345463750724921
 Root      4 :     4.538548883634437
 Root      5 :     4.614498314621203
 Root      6 :     5.625274956450340
 Root      7 :     5.755821003227431
 Root      8 :     5.936005232085300
 Root      9 :     6.117792517716480
 Root     10 :     6.255719888358595
 Root     11 :     6.791804598394315
 Root     12 :     6.877236368679771
 Root     13 :     7.029678416505205
 Root     14 :     7.180043549141927
 Root     15 :     7.208285436120224
 Root     16 :     7.327235605486411
 Root     17 :     7.456167122210655
 Root     18 :     7.536534499870919
 Root     19 :     7.555463772488832
 Root     20 :     7.638524497134006
 Root     21 :     7.682858150123504
 Root     22 :     8.026503117089888
 Root     23 :     8.169189481983665
 Root     24 :     8.357536427434260
 Iteration     2 Dimension    36 NMult    24 NNew     12
 CISAX will form    12 AO SS matrices at one time.
 NMat=    12 NSing=    12 JSym2X= 0.
 Root      1 not converged, maximum delta is    0.054682512763345
 New state      2 was old state      3
 Root      2 not converged, maximum delta is    0.105070396253857
 New state      3 was old state      2
 Root      3 not converged, maximum delta is    0.060459451191863
 New state      4 was old state      5
 Root      4 not converged, maximum delta is    0.040876809742284
 New state      5 was old state      4
 Root      5 not converged, maximum delta is    0.090495695553775
 Root      6 not converged, maximum delta is    0.029629675757771
 Excitation Energies [eV] at current iteration:
 Root      1 :     2.827723362250075   Change is   -0.565075009794305
 Root      2 :     3.960945089147315   Change is   -0.384518661577607
 Root      3 :     3.990156074120647   Change is   -0.260688050968085
 Root      4 :     4.209502816702844   Change is   -0.404995497918360
 Root      5 :     4.434138046908558   Change is   -0.104410836725879
 Root      6 :     5.517299345136284   Change is   -0.107975611314056
 Iteration     3 Dimension    48 NMult    36 NNew     12
 CISAX will form    12 AO SS matrices at one time.
 NMat=    12 NSing=    12 JSym2X= 0.
 Root      1 not converged, maximum delta is    0.015560215415491
 Root      2 not converged, maximum delta is    0.010355876067885
 Root      3 not converged, maximum delta is    0.013039621634244
 Root      4 not converged, maximum delta is    0.012619693416053
 Root      5 not converged, maximum delta is    0.017326636818056
 Root      6 not converged, maximum delta is    0.009867474626178
 Excitation Energies [eV] at current iteration:
 Root      1 :     2.794962240546663   Change is   -0.032761121703412
 Root      2 :     3.948327685441904   Change is   -0.012617403705410
 Root      3 :     3.973839436284344   Change is   -0.016316637836303
 Root      4 :     4.195871106395695   Change is   -0.013631710307149
 Root      5 :     4.425583663289326   Change is   -0.008554383619232
 Root      6 :     5.510059542033765   Change is   -0.007239803102520
 Iteration     4 Dimension    60 NMult    48 NNew     12
 CISAX will form    12 AO SS matrices at one time.
 NMat=    12 NSing=    12 JSym2X= 0.
 Root      1 not converged, maximum delta is    0.003921474118610
 Root      2 not converged, maximum delta is    0.002569876222305
 Root      3 not converged, maximum delta is    0.006879966047556
 Root      4 not converged, maximum delta is    0.004197617035319
 Root      5 not converged, maximum delta is    0.002894749675916
 Root      6 not converged, maximum delta is    0.006245116635584
 Excitation Energies [eV] at current iteration:
 Root      1 :     2.793423567041534   Change is   -0.001538673505129
 Root      2 :     3.947606209373335   Change is   -0.000721476068570
 Root      3 :     3.972203344597351   Change is   -0.001636091686993
 Root      4 :     4.193715422834672   Change is   -0.002155683561023
 Root      5 :     4.424787546755057   Change is   -0.000796116534269
 Root      6 :     5.508877521617787   Change is   -0.001182020415977
 Iteration     5 Dimension    72 NMult    60 NNew     12
 CISAX will form    12 AO SS matrices at one time.
 NMat=    12 NSing=    12 JSym2X= 0.
 Root      1 not converged, maximum delta is    0.000542332494690
 Root      2 not converged, maximum delta is    0.000316111291143
 Root      3 not converged, maximum delta is    0.000486342445127
 Root      4 not converged, maximum delta is    0.002041813738697
 Root      5 not converged, maximum delta is    0.000331645511706
 Root      6 not converged, maximum delta is    0.000835479943097
 Excitation Energies [eV] at current iteration:
 Root      1 :     2.793368618989841   Change is   -0.000054948051693
 Root      2 :     3.947568744589347   Change is   -0.000037464783988
 Root      3 :     3.972112048508998   Change is   -0.000091296088353
 Root      4 :     4.193507992171224   Change is   -0.000207430663448
 Root      5 :     4.424759665559843   Change is   -0.000027881195215
 Root      6 :     5.508799753609337   Change is   -0.000077768008450
 Iteration     6 Dimension    84 NMult    72 NNew     12
 CISAX will form    12 AO SS matrices at one time.
 NMat=    12 NSing=    12 JSym2X= 0.
 Root      1 not converged, maximum delta is    0.000059622476956
 Root      2 not converged, maximum delta is    0.000065251846959
 Root      3 not converged, maximum delta is    0.000242024256529
 Root      4 not converged, maximum delta is    0.000255352395206
 Root      5 not converged, maximum delta is    0.000114313683708
 Root      6 not converged, maximum delta is    0.000180860360035
 Excitation Energies [eV] at current iteration:
 Root      1 :     2.793366413078135   Change is   -0.000002205911706
 Root      2 :     3.947567178856896   Change is   -0.000001565732450
 Root      3 :     3.972104588417528   Change is   -0.000007460091470
 Root      4 :     4.193495234907853   Change is   -0.000012757263370
 Root      5 :     4.424758468475456   Change is   -0.000001197084386
 Root      6 :     5.508794179825491   Change is   -0.000005573783846
 Iteration     7 Dimension    96 NMult    84 NNew     12
 CISAX will form    12 AO SS matrices at one time.
 NMat=    12 NSing=    12 JSym2X= 0.
 Root      1 not converged, maximum delta is    0.000006034102887
 Root      2 not converged, maximum delta is    0.000013829759047
 Root      3 not converged, maximum delta is    0.000040240808017
 Root      4 not converged, maximum delta is    0.000042124531216
 Root      5 not converged, maximum delta is    0.000032324696888
 Root      6 not converged, maximum delta is    0.000058368356886
 Excitation Energies [eV] at current iteration:
 Root      1 :     2.793366348927872   Change is   -0.000000064150263
 Root      2 :     3.947567123197498   Change is   -0.000000055659398
 Root      3 :     3.972104150147348   Change is   -0.000000438270180
 Root      4 :     4.193494493957349   Change is   -0.000000740950504
 Root      5 :     4.424758396551628   Change is   -0.000000071923829
 Root      6 :     5.508793728284823   Change is   -0.000000451540668
 Iteration     8 Dimension   108 NMult    96 NNew     12
 CISAX will form    12 AO SS matrices at one time.
 NMat=    12 NSing=    12 JSym2X= 0.
 Root      1 not converged, maximum delta is    0.000003774503492
 Root      2 not converged, maximum delta is    0.000004448254642
 Root      3 not converged, maximum delta is    0.000009348281368
 Root      4 not converged, maximum delta is    0.000007209788218
 Root      5 not converged, maximum delta is    0.000005410607891
 Root      6 not converged, maximum delta is    0.000028211157291
 Excitation Energies [eV] at current iteration:
 Root      1 :     2.793366343417130   Change is   -0.000000005510742
 Root      2 :     3.947567118971364   Change is   -0.000000004226134
 Root      3 :     3.972104133077775   Change is   -0.000000017069573
 Root      4 :     4.193494457613035   Change is   -0.000000036344314
 Root      5 :     4.424758392707357   Change is   -0.000000003844271
 Root      6 :     5.508793686421011   Change is   -0.000000041863812
 Iteration     9 Dimension   120 NMult   108 NNew     12
 CISAX will form    12 AO SS matrices at one time.
 NMat=    12 NSing=    12 JSym2X= 0.
 Root      1 has converged.
 Root      2 has converged.
 Root      3 not converged, maximum delta is    0.000002179536289
 Root      4 not converged, maximum delta is    0.000002236893373
 Root      5 has converged.
 Root      6 not converged, maximum delta is    0.000006398352759
 Excitation Energies [eV] at current iteration:
 Root      1 :     2.793366343278841   Change is   -0.000000000138289
 Root      2 :     3.947567118812033   Change is   -0.000000000159331
 Root      3 :     3.972104132062584   Change is   -0.000000001015191
 Root      4 :     4.193494455646482   Change is   -0.000000001966553
 Root      5 :     4.424758392557480   Change is   -0.000000000149877
 Root      6 :     5.508793683176058   Change is   -0.000000003244953
 Iteration    10 Dimension   126 NMult   120 NNew      6
 CISAX will form     6 AO SS matrices at one time.
 NMat=     6 NSing=     6 JSym2X= 0.
 Root      1 has converged.
 Root      2 has converged.
 Root      3 has converged.
 Root      4 has converged.
 Root      5 has converged.
 Root      6 not converged, maximum delta is    0.000001124626705
 Excitation Energies [eV] at current iteration:
 Root      1 :     2.793366343279047   Change is    0.000000000000206
 Root      2 :     3.947567118811888   Change is   -0.000000000000146
 Root      3 :     3.972104132014610   Change is   -0.000000000047974
 Root      4 :     4.193494455533095   Change is   -0.000000000113387
 Root      5 :     4.424758392558316   Change is    0.000000000000836
 Root      6 :     5.508793682993595   Change is   -0.000000000182464
 Iteration    11 Dimension   128 NMult   126 NNew      2
 CISAX will form     2 AO SS matrices at one time.
 NMat=     2 NSing=     2 JSym2X= 0.
 Root      1 has converged.
 Root      2 has converged.
 Root      3 has converged.
 Root      4 has converged.
 Root      5 has converged.
 Root      6 has converged.
 Excitation Energies [eV] at current iteration:
 Root      1 :     2.793366343278105   Change is   -0.000000000000942
 Root      2 :     3.947567118811721   Change is   -0.000000000000167
 Root      3 :     3.972104132014425   Change is   -0.000000000000186
 Root      4 :     4.193494455533036   Change is   -0.000000000000059
 Root      5 :     4.424758392557666   Change is   -0.000000000000650
 Root      6 :     5.508793682980821   Change is   -0.000000000012774
 Convergence achieved on expansion vectors.
 ***********************************************************************
 Excited states from <AA,BB:AA,BB> singles matrix:
 ***********************************************************************
 
 1PDM for each excited state written to RWF  633
 Ground to excited state transition densities written to RWF  633
 Ground to excited state transition electric dipole moments (Au):
       state          X           Y           Z        Dip. S.      Osc.
         1        -1.6912      0.0184     -2.2061      7.7276      0.5288
         2         0.6123      0.0056      0.8031      1.0199      0.0986
         3        -1.5970      0.0000      1.2223      4.0445      0.3936
         4        -0.6436      0.0000      0.4936      0.6579      0.0676
         5        -0.0456      0.2606     -0.0593      0.0735      0.0080
         6         0.2313      0.0004      0.3011      0.1442      0.0195
 Ground to excited state transition velocity dipole moments (Au):
       state          X           Y           Z        Dip. S.      Osc.
         1         0.1774     -0.0027      0.2314      0.0850      0.5521
         2        -0.0918     -0.0010     -0.1203      0.0229      0.1052
         3         0.2336      0.0000     -0.1788      0.0866      0.3953
         4         0.1020      0.0000     -0.0782      0.0165      0.0714
         5         0.0101     -0.0468      0.0131      0.0025      0.0101
         6        -0.0496     -0.0016     -0.0646      0.0066      0.0219
 Ground to excited state transition magnetic dipole moments (Au):
       state          X           Y           Z
         1        -0.0002      2.3149     -0.0003
         2         0.0053      0.4766      0.0067
         3         0.0497      0.0001     -0.0381
         4         0.0161      0.0002     -0.0125
         5         0.4003      0.5150      0.5221
         6        -0.0042     -0.2567     -0.0054
 Ground to excited state transition velocity quadrupole moments (Au):
       state          XX          YY          ZZ          XY          XZ          YZ
         1        -0.6492      0.0000      0.6502     -0.0149     -0.1742      0.0114
         2         0.7616     -0.0001     -0.7666      0.0093      0.2087     -0.0071
         3        -2.3732     -0.0747     -1.0137      0.0375      2.5247      0.0489
         4        -0.6827     -0.0066     -0.4344      0.0002      0.4635      0.0003
         5        -0.2836      0.0000      0.2836      0.3881     -0.0762     -0.2977
         6         0.1789      0.0000     -0.1786      0.0340      0.0473     -0.0262
 <0|del|b> * <b|rxdel|0> + <0|del|b> * <b|delr+rdel|0>
 Rotatory Strengths (R) in cgs (10**-40 erg-esu-cm/Gauss)
       state          XX          YY          ZZ    R(velocity)    E-M Angle
         1       -35.1091     18.4784    -26.8792    -14.5033       90.54
         2        -5.3210      1.1581     -4.4146     -2.8591       91.40
         3         0.2203     88.5402      0.4746     29.7450       90.00
         4         2.2154      6.1023      3.6913      4.0030       90.00
         5       -34.2343      6.0755    -29.3880    -19.1823      108.59
         6        -2.3880      7.0868     -1.3288      1.1233       87.36
 1/2[<0|r|b>*<b|rxdel|0> + (<0|rxdel|b>*<b|r|0>)*]
 Rotatory Strengths (R) in cgs (10**-40 erg-esu-cm/Gauss)
       state          XX          YY          ZZ     R(length)
         1        -0.1816    -30.0583     -0.5091    -10.2497
         2        -2.3100     -1.8765     -3.7821     -2.6562
         3        56.1454      0.0000     32.8958     29.6804
         4         7.3145      0.0000      4.3680      3.8941
         5        12.9130    -94.8980     21.9039    -20.0270
         6         0.6795      0.0803      1.1596      0.6398
  1/2[<0|del|b>*<b|r|0> + (<0|r|b>*<b|del|0>)*] (Au)
       state          X           Y           Z        Dip. S.   Osc.(frdel)
         1        -0.3000      0.0000     -0.5105      0.8105      0.5404
         2        -0.0562      0.0000     -0.0966      0.1528      0.1019
         3        -0.3731      0.0000     -0.2186      0.5917      0.3944
         4        -0.0656      0.0000     -0.0386      0.1042      0.0695
         5        -0.0005     -0.0122     -0.0008      0.0134      0.0090
         6        -0.0115      0.0000     -0.0195      0.0309      0.0206

 Excitation energies and oscillator strengths:
 
 Excited state symmetry could not be determined.
 Excited State   1:      Singlet-?Sym    2.7934 eV  443.85 nm  f=0.5288  <S**2>=0.000
      69 -> 70         0.69887
 This state for optimization and/or second-order correction.
 Total Energy, E(TD-HF/TD-KS) =  -912.083931263    
 Copying the excited state density for this state as the 1-particle RhoCI density.
 
 Excited state symmetry could not be determined.
 Excited State   2:      Singlet-?Sym    3.9476 eV  314.08 nm  f=0.0986  <S**2>=0.000
      66 -> 70         0.12708
      67 -> 70         0.68768
 
 Excited state symmetry could not be determined.
 Excited State   3:      Singlet-?Sym    3.9721 eV  312.14 nm  f=0.3936  <S**2>=0.000
      68 -> 70         0.69625
 
 Excited state symmetry could not be determined.
 Excited State   4:      Singlet-?Sym    4.1935 eV  295.66 nm  f=0.0676  <S**2>=0.000
      65 -> 70         0.69953
 
 Excited state symmetry could not be determined.
 Excited State   5:      Singlet-?Sym    4.4248 eV  280.21 nm  f=0.0080  <S**2>=0.000
      66 -> 70         0.67943
      67 -> 70        -0.12254
      68 -> 72         0.11049
 
 Excited state symmetry could not be determined.
 Excited State   6:      Singlet-?Sym    5.5088 eV  225.07 nm  f=0.0195  <S**2>=0.000
      69 -> 71         0.69368
 SavETr:  write IOETrn=   770 NScale= 10 NData=  16 NLR=1 NState=    6 LETran=     118.
 The selected state is a singlet
 CISAX will form     1 AO SS matrices at one time.
 NMat=     1 NSing=     1 JSym2X= 0.
 GePol: Maximum number of non-zero 1st derivatives   =     212
 CISAX will form     1 AO SS matrices at one time.
 NMat=     1 NSing=     1 JSym2X= 0.
 Leave Link  914 at Fri Sep 28 13:53:41 2018, MaxMem= 12079595520 cpu:      5608.7
 (Enter /scratch/prg/gaussian/bin/g09/linda-exe/l1002.exel)
 Minotr:  Closed shell wavefunction.
          Computing CIS/TD-HF/TD-KS derivatives.
          Using Z-Vector for PSCF gradient.
          Skipping F1 and S1 gradient terms here.
          IDoAtm=1111111111111111111111111111111
 NEqPCM:  Using equilibrium solvation (IEInf=0, Eps=   2.3741, EpsInf=   2.2383)
          Frozen-core window.
          Direct CPHF calculation.
          Differentiating once with respect to electric field.
                with respect to dipole field.
          Differentiating once with respect to nuclear coordinates.
          Requested convergence is 1.0D-10 RMS, and 1.0D-09 maximum.
          NewPWx=F KeepS1=T KeepF1=T KeepIn=T MapXYZ=F SortEE=F KeepMc=T.
          MDV=   12079594891 using IRadAn=       5.
 Using stored XC quadrature information.
 Keep R1 ints in memory in canonical form, NReq=1606309516.
 FoFCou: FMM=F IPFlag=           0 FMFlag=           0 FMFlg1=           0
         NFxFlg=           0 DoJE=F BraDBF=F KetDBF=F FulRan=T
         wScrn=  0.000000 ICntrl=     600 IOpCl=  0 I1Cent=           0 NGrid=           0
         NMat0=    1 NMatS0=  56280 NMatT0=    0 NMatD0=    1 NMtDS0=    0 NMtDT0=    0
 Symmetry not used in FoFCou.
          Solving linear equations separately, MaxMat=       0.
          There are     1 degrees of freedom in the 1st order CPHF.  IDoFFX=0 NUNeed=     1.
 LinEq1:  Iter=  0 NonCon=     1 RMS=4.72D-03 Max=3.46D-01 NDo=     1
 AX will form     1 AO Fock derivatives at one time.
 LinEq1:  Iter=  1 NonCon=     1 RMS=2.24D-03 Max=1.89D-01 NDo=     1
 LinEq1:  Iter=  2 NonCon=     1 RMS=1.44D-03 Max=6.73D-02 NDo=     1
 LinEq1:  Iter=  3 NonCon=     1 RMS=3.46D-04 Max=1.43D-02 NDo=     1
 LinEq1:  Iter=  4 NonCon=     1 RMS=2.27D-04 Max=7.42D-03 NDo=     1
 LinEq1:  Iter=  5 NonCon=     1 RMS=1.13D-04 Max=5.69D-03 NDo=     1
 LinEq1:  Iter=  6 NonCon=     1 RMS=5.52D-05 Max=2.90D-03 NDo=     1
 LinEq1:  Iter=  7 NonCon=     1 RMS=2.68D-05 Max=1.10D-03 NDo=     1
 LinEq1:  Iter=  8 NonCon=     1 RMS=1.19D-05 Max=4.70D-04 NDo=     1
 LinEq1:  Iter=  9 NonCon=     1 RMS=4.18D-06 Max=1.07D-04 NDo=     1
 LinEq1:  Iter= 10 NonCon=     1 RMS=2.00D-06 Max=8.43D-05 NDo=     1
 LinEq1:  Iter= 11 NonCon=     1 RMS=5.84D-07 Max=1.46D-05 NDo=     1
 LinEq1:  Iter= 12 NonCon=     1 RMS=2.53D-07 Max=9.60D-06 NDo=     1
 LinEq1:  Iter= 13 NonCon=     1 RMS=1.03D-07 Max=2.59D-06 NDo=     1
 LinEq1:  Iter= 14 NonCon=     1 RMS=3.73D-08 Max=1.61D-06 NDo=     1
 LinEq1:  Iter= 15 NonCon=     1 RMS=1.58D-08 Max=4.76D-07 NDo=     1
 LinEq1:  Iter= 16 NonCon=     1 RMS=4.11D-09 Max=1.45D-07 NDo=     1
 LinEq1:  Iter= 17 NonCon=     1 RMS=1.50D-09 Max=4.19D-08 NDo=     1
 LinEq1:  Iter= 18 NonCon=     1 RMS=7.67D-10 Max=3.09D-08 NDo=     1
 LinEq1:  Iter= 19 NonCon=     1 RMS=3.11D-10 Max=1.59D-08 NDo=     1
 LinEq1:  Iter= 20 NonCon=     1 RMS=2.04D-10 Max=1.28D-08 NDo=     1
 LinEq1:  Iter= 21 NonCon=     1 RMS=7.13D-11 Max=3.88D-09 NDo=     1
 LinEq1:  Iter= 22 NonCon=     1 RMS=2.16D-11 Max=1.14D-09 NDo=     1
 LinEq1:  Iter= 23 NonCon=     0 RMS=6.74D-12 Max=2.13D-10 NDo=     1
 Linear equations converged to 1.000D-10 1.000D-09 after    23 iterations.
 End of Minotr F.D. properties file   721 does not exist.
 End of Minotr F.D. properties file   722 does not exist.
 End of Minotr F.D. properties file   788 does not exist.
 Leave Link 1002 at Fri Sep 28 13:59:58 2018, MaxMem= 12079595520 cpu:      2638.1
 (Enter /scratch/prg/gaussian/bin/g09/l601.exe)
 Copying SCF densities to generalized density rwf, IOpCl= 0 IROHF=0.

 **********************************************************************

            Population analysis using the SCF density.

 **********************************************************************

 Alpha  occ. eigenvalues --  -25.20210 -25.20210 -14.80115 -14.80115 -10.62595
 Alpha  occ. eigenvalues --  -10.60468 -10.60467 -10.60068 -10.60066 -10.58967
 Alpha  occ. eigenvalues --  -10.57677 -10.57675 -10.57337 -10.57166 -10.57166
 Alpha  occ. eigenvalues --  -10.57136 -10.57123 -10.55793 -10.55793  -7.12766
 Alpha  occ. eigenvalues --   -1.30784  -1.27404  -1.10983  -1.09013  -0.98927
 Alpha  occ. eigenvalues --   -0.93193  -0.89531  -0.88237  -0.86102  -0.85368
 Alpha  occ. eigenvalues --   -0.82343  -0.76548  -0.70836  -0.70169  -0.69637
 Alpha  occ. eigenvalues --   -0.66831  -0.66385  -0.65815  -0.61874  -0.61133
 Alpha  occ. eigenvalues --   -0.59211  -0.57336  -0.56728  -0.54214  -0.53955
 Alpha  occ. eigenvalues --   -0.52641  -0.52210  -0.51142  -0.50298  -0.50144
 Alpha  occ. eigenvalues --   -0.49726  -0.49723  -0.47977  -0.46926  -0.46706
 Alpha  occ. eigenvalues --   -0.45701  -0.45488  -0.44563  -0.44526  -0.44268
 Alpha  occ. eigenvalues --   -0.42190  -0.41805  -0.41353  -0.37225  -0.32740
 Alpha  occ. eigenvalues --   -0.32618  -0.31923  -0.31331  -0.26411
 Alpha virt. eigenvalues --   -0.08908   0.00821   0.00889   0.06102   0.07674
 Alpha virt. eigenvalues --    0.09051   0.10369   0.12283   0.12371   0.13620
 Alpha virt. eigenvalues --    0.13760   0.14417   0.15401   0.15707   0.16758
 Alpha virt. eigenvalues --    0.16913   0.17632   0.18146   0.20089   0.20410
 Alpha virt. eigenvalues --    0.23179   0.23829   0.24984   0.25716   0.26300
 Alpha virt. eigenvalues --    0.26604   0.27841   0.29079   0.29820   0.31126
 Alpha virt. eigenvalues --    0.32580   0.33727   0.34491   0.35290   0.37748
 Alpha virt. eigenvalues --    0.38952   0.41160   0.41535   0.43341   0.43786
 Alpha virt. eigenvalues --    0.44759   0.44872   0.46195   0.48305   0.48597
 Alpha virt. eigenvalues --    0.50509   0.50759   0.51334   0.51771   0.52078
 Alpha virt. eigenvalues --    0.52820   0.53141   0.53803   0.54222   0.54415
 Alpha virt. eigenvalues --    0.54486   0.54974   0.55340   0.55789   0.56114
 Alpha virt. eigenvalues --    0.56972   0.58504   0.58710   0.60327   0.60802
 Alpha virt. eigenvalues --    0.61347   0.62343   0.62565   0.62618   0.63245
 Alpha virt. eigenvalues --    0.65850   0.66815   0.67542   0.68565   0.68797
 Alpha virt. eigenvalues --    0.69815   0.70433   0.70506   0.72249   0.72959
 Alpha virt. eigenvalues --    0.73520   0.74113   0.75798   0.76004   0.76151
 Alpha virt. eigenvalues --    0.77540   0.79062   0.80285   0.82912   0.82944
 Alpha virt. eigenvalues --    0.86131   0.87315   0.87904   0.88877   0.90771
 Alpha virt. eigenvalues --    0.92740   0.93849   0.93937   0.94916   0.95272
 Alpha virt. eigenvalues --    0.95857   0.97512   0.98248   0.99126   0.99783
 Alpha virt. eigenvalues --    1.00179   1.00981   1.01752   1.02248   1.02716
 Alpha virt. eigenvalues --    1.03472   1.04589   1.04603   1.05373   1.05560
 Alpha virt. eigenvalues --    1.06301   1.06869   1.08479   1.08479   1.10118
 Alpha virt. eigenvalues --    1.10137   1.10937   1.11738   1.15120   1.15886
 Alpha virt. eigenvalues --    1.16366   1.17175   1.17814   1.20590   1.24999
 Alpha virt. eigenvalues --    1.25176   1.30498   1.30982   1.34566   1.34810
 Alpha virt. eigenvalues --    1.36260   1.36997   1.37181   1.37813   1.40639
 Alpha virt. eigenvalues --    1.41385   1.42704   1.43092   1.44073   1.46302
 Alpha virt. eigenvalues --    1.46455   1.47434   1.49866   1.51151   1.52051
 Alpha virt. eigenvalues --    1.52741   1.53046   1.53226   1.55028   1.55824
 Alpha virt. eigenvalues --    1.56422   1.58245   1.59077   1.60136   1.60584
 Alpha virt. eigenvalues --    1.62126   1.62812   1.63021   1.63785   1.65104
 Alpha virt. eigenvalues --    1.65559   1.65693   1.66615   1.67408   1.68140
 Alpha virt. eigenvalues --    1.70355   1.71421   1.71785   1.72255   1.72652
 Alpha virt. eigenvalues --    1.72799   1.74446   1.75712   1.76054   1.76667
 Alpha virt. eigenvalues --    1.77284   1.79180   1.80519   1.80732   1.80881
 Alpha virt. eigenvalues --    1.82296   1.83363   1.84090   1.84720   1.85636
 Alpha virt. eigenvalues --    1.86001   1.87101   1.87393   1.88357   1.88988
 Alpha virt. eigenvalues --    1.89909   1.90056   1.91583   1.92487   1.92842
 Alpha virt. eigenvalues --    1.94005   1.98034   1.99258   2.00747   2.00787
 Alpha virt. eigenvalues --    2.02636   2.03447   2.04211   2.05439   2.09120
 Alpha virt. eigenvalues --    2.12594   2.16293   2.17760   2.18215   2.19194
 Alpha virt. eigenvalues --    2.20205   2.20487   2.22041   2.25746   2.25776
 Alpha virt. eigenvalues --    2.28470   2.31588   2.31980   2.39042   2.39791
 Alpha virt. eigenvalues --    2.39986   2.41679   2.41772   2.44612   2.44634
 Alpha virt. eigenvalues --    2.45415   2.46077   2.46828   2.48289   2.50349
 Alpha virt. eigenvalues --    2.52580   2.52689   2.57611   2.58007   2.58620
 Alpha virt. eigenvalues --    2.63172   2.65448   2.69941   2.71500   2.72068
 Alpha virt. eigenvalues --    2.75819   2.77753   2.82148   2.86555   2.93130
 Alpha virt. eigenvalues --    2.98231   3.04721   3.10140   3.26864   3.29376
 Alpha virt. eigenvalues --    3.56650   3.69253   3.69327   3.73081   3.75780
 Alpha virt. eigenvalues --    3.76582   3.92277   4.02245   4.06167   4.15064
 Alpha virt. eigenvalues --    4.15814
          Condensed to atoms (all electrons):
               1          2          3          4          5          6
     1  B    3.383038   0.337964  -0.020933   0.001200   0.000267   0.000194
     2  N    0.337964   6.169368   0.504856  -0.024513  -0.053263   0.003952
     3  C   -0.020933   0.504856   4.730570   0.405046   0.488800  -0.041136
     4  H    0.001200  -0.024513   0.405046   0.593765  -0.042961  -0.003546
     5  C    0.000267  -0.053263   0.488800  -0.042961   4.772553   0.412768
     6  H    0.000194   0.003952  -0.041136  -0.003546   0.412768   0.647844
     7  C    0.004230  -0.085966  -0.049869   0.007517   0.542313  -0.040865
[...]
    29  C   -0.008514
 Electronic spatial extent (au):  <R**2>=           8494.9554
 Charge=              0.0000 electrons
 Dipole moment (field-independent basis, Debye):
    X=             -2.5185    Y=              1.5635    Z=              2.1193  Tot=              3.6440
 Quadrupole moment (field-independent basis, Debye-Ang):
   XX=            -93.5840   YY=           -118.6985   ZZ=            -90.4426
   XY=             -3.2182   XZ=              3.5850   YZ=             -3.6257
 Traceless Quadrupole moment (field-independent basis, Debye-Ang):
   XX=              7.3244   YY=            -17.7901   ZZ=             10.4657
   XY=             -3.2182   XZ=              3.5850   YZ=             -3.6257
 Octapole moment (field-independent basis, Debye-Ang**2):
  XXX=            633.6296  YYY=             16.8138  ZZZ=           -497.6385  XYY=            244.3338
  XXY=             32.5117  XXZ=           -135.6684  XZZ=            196.7190  YZZ=            -15.4484
  YYZ=           -185.6114  XYZ=             10.7167
 Hexadecapole moment (field-independent basis, Debye-Ang**3):
 XXXX=          -5889.1623 YYYY=           -375.5587 ZZZZ=          -4373.5147 XXXY=           -170.1134
 XXXZ=           1349.4472 YYYX=             34.3732 YYYZ=             60.3426 ZZZX=           1523.5730
 ZZZY=            -63.6277 XXYY=          -1166.2751 XXZZ=          -1497.6548 YYZZ=           -869.0853
 XXYZ=             27.8260 YYXZ=            550.9162 ZZXY=            101.1426
 N-N= 1.466653839741D+03 E-N=-5.062993908567D+03  KE= 9.066146122751D+02

 **********************************************************************

            Population analysis using the CI density.

 **********************************************************************

          Condensed to atoms (all electrons):
               1          2          3          4          5          6
     1  B    3.395637   0.342070  -0.028489  -0.001022  -0.000294   0.000169
     2  N    0.342070   6.198876   0.490370  -0.025120  -0.053526   0.003848
     3  C   -0.028489   0.490370   4.778946   0.404479   0.463006  -0.041635
     4  H   -0.001022  -0.025120   0.404479   0.595793  -0.041688  -0.003480
     5  C   -0.000294  -0.053526   0.463006  -0.041688   4.781494   0.412438
     6  H    0.000169   0.003848  -0.041635  -0.003480   0.412438   0.640138
     7  C    0.004470  -0.081356  -0.057561   0.007266   0.522813  -0.040630
     8  H    0.000337   0.004165   0.009464  -0.000066  -0.044203  -0.006022
     9  C   -0.062731   0.426587  -0.135201   0.003028  -0.040880   0.009194
    10  C   -0.009431  -0.042174   0.007909  -0.000803   0.009250  -0.000213
    11  N    0.340661  -0.028769   0.000031   0.000193  -0.000106   0.000002
    12  C   -0.026880   0.000192  -0.000031  -0.000010   0.000000   0.000000
    13  H   -0.000455   0.000190  -0.000010   0.000000   0.000000   0.000000
    14  C   -0.000923  -0.000122  -0.000003  -0.000001   0.000000   0.000000
    15  H    0.000153   0.000002   0.000000   0.000000   0.000000   0.000000
    16  C    0.003755   0.000052   0.000031   0.000002  -0.000001   0.000000
    17  H    0.000300  -0.000008   0.000000   0.000000   0.000000   0.000000
    18  C   -0.062840  -0.010493  -0.000192   0.000099  -0.000545   0.000005
    19  F    0.450804  -0.027111   0.006628   0.002979   0.000445   0.000002
    20  F    0.480274  -0.027138  -0.002824  -0.000395  -0.000111   0.000000
    21  C    0.002311   0.003868  -0.000179   0.000004   0.000593  -0.000001
    22  C   -0.000125   0.000057  -0.000043   0.000001   0.000297   0.000004
    23  H   -0.000020  -0.000196  -0.000095  -0.000001   0.000388   0.000005
    24  C    0.000002  -0.000001   0.000001   0.000000  -0.000012   0.000000
    25  H    0.000000   0.000000   0.000000   0.000000   0.000000   0.000000
    26  C    0.000000   0.000000   0.000000   0.000000   0.000000   0.000000
    27  C    0.000001   0.000001   0.000000   0.000000   0.000000   0.000000
    28  H    0.000000   0.000000   0.000000   0.000000   0.000000   0.000000
    29  C    0.000014  -0.000072   0.000002   0.000000  -0.000007   0.000000
    30  H   -0.000021  -0.000001   0.000000   0.000000  -0.000002   0.000000
    31  H    0.000000   0.000000   0.000000   0.000000   0.000000   0.000000
               7          8          9         10         11         12
     1  B    0.004470   0.000337  -0.062731  -0.009431   0.340661  -0.026880
     2  N   -0.081356   0.004165   0.426587  -0.042174  -0.028769   0.000192
     3  C   -0.057561   0.009464  -0.135201   0.007909   0.000031  -0.000031
     4  H    0.007266  -0.000066   0.003028  -0.000803   0.000193  -0.000010
     5  C    0.522813  -0.044203  -0.040880   0.009250  -0.000106   0.000000
     6  H   -0.040630  -0.006022   0.009194  -0.000213   0.000002   0.000000
     7  C    4.918566   0.411089   0.458664  -0.106281   0.000114   0.000027
     8  H    0.411089   0.644276  -0.031123  -0.014121  -0.000006   0.000000
     9  C    0.458664  -0.031123   5.034520   0.301888  -0.010409  -0.000221
    10  C   -0.106281  -0.014121   0.301888   5.407334  -0.042927   0.008198
    11  N    0.000114  -0.000006  -0.010409  -0.042927   6.208468   0.489129
    12  C    0.000027   0.000000  -0.000221   0.008198   0.489129   4.777517
    13  H    0.000002   0.000000   0.000109  -0.000853  -0.025020   0.404044
    14  C    0.000001   0.000000  -0.000590   0.008722  -0.053356   0.461211
    15  H    0.000000   0.000000   0.000005  -0.000211   0.003875  -0.041889
    16  C   -0.000089   0.000004   0.011951  -0.106363  -0.083258  -0.056668
    17  H    0.000000   0.000001   0.000074  -0.011924   0.004076   0.009428
    18  C    0.010612   0.000004  -0.002927   0.306834   0.427706  -0.134506
    19  F   -0.000128   0.000000  -0.003505   0.001358  -0.026335   0.006547
    20  F    0.000058   0.000001  -0.000705   0.000030  -0.028105  -0.002917
    21  C   -0.012115   0.003554  -0.078075   0.393503   0.003655  -0.000158
    22  C   -0.001844   0.003760  -0.018804  -0.075335  -0.000096   0.000000
    23  H    0.004097  -0.000826  -0.001347  -0.013119  -0.000003   0.000000
    24  C   -0.000467   0.000922   0.000686   0.007402   0.000000   0.000000
    25  H    0.000013  -0.000002   0.000010  -0.000462   0.000000   0.000000
    26  C   -0.000009  -0.000016  -0.000004   0.001326   0.000000   0.000000
    27  C   -0.000012  -0.000065  -0.000271   0.007085   0.000001   0.000000
    28  H    0.000000   0.000000   0.000003  -0.000444   0.000000   0.000000
    29  C    0.000793  -0.000075   0.005529  -0.076306   0.000139  -0.000052
    30  H    0.000037   0.000005   0.000419  -0.013444  -0.000166  -0.000123
    31  H    0.000000   0.000001   0.000000   0.000006   0.000000   0.000000
              13         14         15         16         17         18
     1  B   -0.000455  -0.000923   0.000153   0.003755   0.000300  -0.062840
     2  N    0.000190  -0.000122   0.000002   0.000052  -0.000008  -0.010493
     3  C   -0.000010  -0.000003   0.000000   0.000031   0.000000  -0.000192
     4  H    0.000000  -0.000001   0.000000   0.000002   0.000000   0.000099
     5  C    0.000000   0.000000   0.000000  -0.000001   0.000000  -0.000545
     6  H    0.000000   0.000000   0.000000   0.000000   0.000000   0.000005
     7  C    0.000002   0.000001   0.000000  -0.000089   0.000000   0.010612
     8  H    0.000000   0.000000   0.000000   0.000004   0.000001   0.000004
     9  C    0.000109  -0.000590   0.000005   0.011951   0.000074  -0.002927
    10  C   -0.000853   0.008722  -0.000211  -0.106363  -0.011924   0.306834
    11  N   -0.025020  -0.053356   0.003875  -0.083258   0.004076   0.427706
    12  C    0.404044   0.461211  -0.041889  -0.056668   0.009428  -0.134506
    13  H    0.595530  -0.041640  -0.003472   0.007430  -0.000065   0.002877
    14  C   -0.041640   4.783744   0.412173   0.520084  -0.043522  -0.038850
    15  H   -0.003472   0.412173   0.640323  -0.040040  -0.006225   0.009232
    16  C    0.007430   0.520084  -0.040040   4.934786   0.410014   0.452629
    17  H   -0.000065  -0.043522  -0.006225   0.410014   0.643551  -0.032024
    18  C    0.002877  -0.038850   0.009232   0.452629  -0.032024   5.020572
    19  F    0.002605   0.000450   0.000003  -0.000127   0.000000  -0.003463
    20  F   -0.000373  -0.000193   0.000000   0.000065   0.000001  -0.000754
    21  C    0.000005   0.000734  -0.000001  -0.013763   0.001601  -0.073518
    22  C    0.000000   0.000011   0.000000   0.000473  -0.000175   0.006197
    23  H    0.000000  -0.000001   0.000000  -0.000017   0.000001   0.001010
    24  C    0.000000   0.000000   0.000000  -0.000001  -0.000047  -0.000331
    25  H    0.000000   0.000000   0.000000   0.000000   0.000000   0.000003
    26  C    0.000000   0.000000   0.000000  -0.000007  -0.000023  -0.000004
    27  C    0.000000  -0.000017   0.000000  -0.000207   0.001364   0.000643
    28  H    0.000000  -0.000001   0.000000   0.000018  -0.000003   0.000015
    29  C    0.000000   0.000270   0.000007  -0.001023   0.005214  -0.016399
    30  H   -0.000001   0.000722   0.000012   0.005251  -0.001282  -0.002133
    31  H    0.000000   0.000000   0.000000   0.000000   0.000000   0.000000
              19         20         21         22         23         24
     1  B    0.450804   0.480274   0.002311  -0.000125  -0.000020   0.000002
     2  N   -0.027111  -0.027138   0.003868   0.000057  -0.000196  -0.000001
     3  C    0.006628  -0.002824  -0.000179  -0.000043  -0.000095   0.000001
     4  H    0.002979  -0.000395   0.000004   0.000001  -0.000001   0.000000
     5  C    0.000445  -0.000111   0.000593   0.000297   0.000388  -0.000012
     6  H    0.000002   0.000000  -0.000001   0.000004   0.000005   0.000000
     7  C   -0.000128   0.000058  -0.012115  -0.001844   0.004097  -0.000467
     8  H    0.000000   0.000001   0.003554   0.003760  -0.000826   0.000922
     9  C   -0.003505  -0.000705  -0.078075  -0.018804  -0.001347   0.000686
    10  C    0.001358   0.000030   0.393503  -0.075335  -0.013119   0.007402
    11  N   -0.026335  -0.028105   0.003655  -0.000096  -0.000003   0.000000
    12  C    0.006547  -0.002917  -0.000158   0.000000   0.000000   0.000000
    13  H    0.002605  -0.000373   0.000005   0.000000   0.000000   0.000000
    14  C    0.000450  -0.000193   0.000734   0.000011  -0.000001   0.000000
    15  H    0.000003   0.000000  -0.000001   0.000000   0.000000   0.000000
    16  C   -0.000127   0.000065  -0.013763   0.000473  -0.000017  -0.000001
    17  H    0.000000   0.000001   0.001601  -0.000175   0.000001  -0.000047
    18  C   -0.003463  -0.000754  -0.073518   0.006197   0.001010  -0.000331
    19  F    8.840585  -0.018988   0.000003   0.000000   0.000000   0.000000
    20  F   -0.018988   8.825150   0.000005   0.000000   0.000000   0.000000
    21  C    0.000003   0.000005   5.011097   0.495915  -0.049274  -0.008268
    22  C    0.000000   0.000000   0.495915   4.803920   0.402845   0.521361
    23  H    0.000000   0.000000  -0.049274   0.402845   0.675735  -0.036471
    24  C    0.000000   0.000000  -0.008268   0.521361  -0.036471   4.710919
    25  H    0.000000   0.000000   0.008389  -0.036599  -0.012571   0.396283
    26  C    0.000000   0.000000  -0.062147  -0.020129   0.009003   0.511390
    27  C    0.000000   0.000000  -0.008717  -0.065004  -0.000620  -0.009717
    28  H    0.000000   0.000000   0.008294   0.000158   0.000055   0.008396
    29  C    0.000000   0.000000   0.496348  -0.027464   0.009716  -0.065349
    30  H    0.000000   0.000000  -0.048262   0.009280  -0.000186  -0.000565
    31  H    0.000000   0.000000  -0.000467   0.009390  -0.000198  -0.043886
              25         26         27         28         29         30
     1  B    0.000000   0.000000   0.000001   0.000000   0.000014  -0.000021
     2  N    0.000000   0.000000   0.000001   0.000000  -0.000072  -0.000001
     3  C    0.000000   0.000000   0.000000   0.000000   0.000002   0.000000
     4  H    0.000000   0.000000   0.000000   0.000000   0.000000   0.000000
     5  C    0.000000   0.000000   0.000000   0.000000  -0.000007  -0.000002
     6  H    0.000000   0.000000   0.000000   0.000000   0.000000   0.000000
     7  C    0.000013  -0.000009  -0.000012   0.000000   0.000793   0.000037
     8  H   -0.000002  -0.000016  -0.000065   0.000000  -0.000075   0.000005
     9  C    0.000010  -0.000004  -0.000271   0.000003   0.005529   0.000419
    10  C   -0.000462   0.001326   0.007085  -0.000444  -0.076306  -0.013444
    11  N    0.000000   0.000000   0.000001   0.000000   0.000139  -0.000166
    12  C    0.000000   0.000000   0.000000   0.000000  -0.000052  -0.000123
    13  H    0.000000   0.000000   0.000000   0.000000   0.000000  -0.000001
    14  C    0.000000   0.000000  -0.000017  -0.000001   0.000270   0.000722
    15  H    0.000000   0.000000   0.000000   0.000000   0.000007   0.000012
    16  C    0.000000  -0.000007  -0.000207   0.000018  -0.001023   0.005251
    17  H    0.000000  -0.000023   0.001364  -0.000003   0.005214  -0.001282
    18  C    0.000003  -0.000004   0.000643   0.000015  -0.016399  -0.002133
    19  F    0.000000   0.000000   0.000000   0.000000   0.000000   0.000000
    20  F    0.000000   0.000000   0.000000   0.000000   0.000000   0.000000
    21  C    0.008389  -0.062147  -0.008717   0.008294   0.496348  -0.048262
    22  C   -0.036599  -0.020129  -0.065004   0.000158  -0.027464   0.009280
    23  H   -0.012571   0.009003  -0.000620   0.000055   0.009716  -0.000186
    24  C    0.396283   0.511390  -0.009717   0.008396  -0.065349  -0.000565
    25  H    0.676423  -0.045549   0.008431  -0.000224   0.000110   0.000055
    26  C   -0.045549   4.752823   0.514305  -0.045129  -0.020867   0.008850
    27  C    0.008431   0.514305   4.708528   0.395832   0.520428  -0.035584
    28  H   -0.000224  -0.045129   0.395832   0.676795  -0.036462  -0.012561
    29  C    0.000110  -0.020867   0.520428  -0.036462   4.811357   0.400100
    30  H    0.000055   0.008850  -0.035584  -0.012561   0.400100   0.677138
    31  H   -0.012464   0.400894  -0.043736  -0.012484   0.009465  -0.000201
              31
     1  B    0.000000
     2  N    0.000000
     3  C    0.000000
     4  H    0.000000
     5  C    0.000000
     6  H    0.000000
     7  C    0.000000
     8  H    0.000001
     9  C    0.000000
    10  C    0.000006
    11  N    0.000000
    12  C    0.000000
    13  H    0.000000
    14  C    0.000000
    15  H    0.000000
    16  C    0.000000
    17  H    0.000000
    18  C    0.000000
    19  F    0.000000
    20  F    0.000000
    21  C   -0.000467
    22  C    0.009390
    23  H   -0.000198
    24  C   -0.043886
    25  H   -0.012464
    26  C    0.400894
    27  C   -0.043736
    28  H   -0.012484
    29  C    0.009465
    30  H   -0.000201
    31  H    0.677192
 Mulliken charges:
               1
     1  B    0.172275
     2  N   -0.174189
     3  C    0.105398
     4  H    0.058742
     5  C   -0.009348
     6  H    0.026177
     7  C   -0.038126
     8  H    0.018941
     9  C    0.134126
    10  C    0.053567
    11  N   -0.179494
    12  C    0.107161
    13  H    0.059098
    14  C   -0.008905
    15  H    0.026055
    16  C   -0.044979
    17  H    0.019672
    18  C    0.140543
    19  F   -0.232753
    20  F   -0.223082
    21  C   -0.074933
    22  C   -0.008048
    23  H    0.012089
    24  C    0.007754
    25  H    0.018156
    26  C   -0.004706
    27  C    0.007332
    28  H    0.017742
    29  C   -0.015415
    30  H    0.012663
    31  H    0.016487
 Sum of Mulliken charges =   0.00000
 Mulliken charges with hydrogens summed into heavy atoms:
               1
     1  B    0.172275
     2  N   -0.174189
     3  C    0.164141
     5  C    0.016829
     7  C   -0.019186
     9  C    0.134126
    10  C    0.053567
    11  N   -0.179494
    12  C    0.166259
    14  C    0.017150
    16  C   -0.025307
    18  C    0.140543
    19  F   -0.232753
    20  F   -0.223082
    21  C   -0.074933
    22  C    0.004042
    24  C    0.025910
    26  C    0.011782
    27  C    0.025074
    29  C   -0.002752
 Electronic spatial extent (au):  <R**2>=           8491.7304
 Charge=              0.0000 electrons
 Dipole moment (field-independent basis, Debye):
    X=             -3.6686    Y=              1.4824    Z=              2.8979  Tot=              4.9045
 Quadrupole moment (field-independent basis, Debye-Ang):
   XX=            -89.7228   YY=           -118.9438   ZZ=            -89.7207
   XY=             -3.0146   XZ=             -1.4143   YZ=             -3.4376
 Traceless Quadrupole moment (field-independent basis, Debye-Ang):
   XX=              9.7396   YY=            -19.4814   ZZ=              9.7417
   XY=             -3.0146   XZ=             -1.4143   YZ=             -3.4376
 Octapole moment (field-independent basis, Debye-Ang**2):
  XXX=            620.2802  YYY=             16.7651  ZZZ=           -494.1407  XYY=            245.0383
  XXY=             31.3914  XXZ=           -123.9492  XZZ=            188.4123  YZZ=            -14.3012
  YYZ=           -186.2422  XYZ=             10.3381
 Hexadecapole moment (field-independent basis, Debye-Ang**3):
 XXXX=          -5858.3728 YYYY=           -377.2717 ZZZZ=          -4371.2099 XXXY=           -163.1491
 XXXZ=           1326.7235 YYYX=             34.8024 YYYZ=             61.4936 ZZZX=           1505.8503
 ZZZY=            -55.6201 XXYY=          -1171.0781 XXZZ=          -1487.3036 YYZZ=           -873.2488
 XXYZ=             27.4056 YYXZ=            553.4302 ZZXY=             97.7855
 N-N= 1.466653839741D+03 E-N=-5.062782278147D+03  KE= 9.065796148786D+02
 No NMR shielding tensors so no spin-rotation constants.
 Leave Link  601 at Fri Sep 28 20:25:42 2018, MaxMem= 12079595520 cpu:         4.8
 (Enter /scratch/prg/gaussian/bin/g09/l9999.exe)
 1\1\GINC-FIZIKA90-IB\FOpt\RM062X TD-FC\CC-pVDZ\C15H11B1F2N2\STETOL\28-
 Sep-2018\0\\#p m062x cc-pvdz scrf=(cpcm,solvent=Toluene) td=(nstate=6,
 root=1) opt=tight nosymm density=all int=ultrafine fchk\\BODIPY-phenyl
  at around S1 minimum in toluene\\0,1\B,-0.02231398,-0.3180758778,0.01
 33264058\N,-0.0017072985,-0.0856934232,1.5417922564\C,1.0918032827,0.0
 444545518,2.2971068696\H,2.0811883711,0.0381879069,1.8449099729\C,0.71
 96962462,0.1827172175,3.6619384042\H,1.4088886656,0.3095865748,4.49192
 95059\C,-0.6674047958,0.1400733757,3.7136318932\H,-1.3049430299,0.2524
 704625,4.5850533434\C,-1.1286913598,-0.0298481016,2.3772335273\C,-2.45
 22475332,-0.0401633255,1.8490474941\N,-1.4679788505,0.0439919347,-0.40
 74850168\C,-1.8827897116,0.1866207892,-1.6688295714\H,-1.1685722089,0.
 1905696479,-2.4894518411\C,-3.2996696195,0.2841133689,-1.7016628998\H,
 -3.9024745938,0.3966981294,-2.5982886608\C,-3.7469793948,0.1918939208,
 -0.3900666029\H,-4.7738312813,0.2098931098,-0.0406102343\C,-2.59400984
 85,0.0542696937,0.4354257079\F,0.8956272689,0.5126223835,-0.6198079732
 \F,0.2468478283,-1.6544249061,-0.2846567102\C,-3.6111254862,-0.0579184
 338,2.7511863732\C,-3.6598286827,-0.9700996944,3.821088975\H,-2.842011
 4546,-1.6802779063,3.9547819365\C,-4.751175449,-0.9943102845,4.6841320
 824\H,-4.7766349683,-1.7174150379,5.5000699063\C,-5.8122422276,-0.1057
 684216,4.5020537814\C,-5.7717876727,0.8097049113,3.4499324725\H,-6.589
 0156888,1.5180257719,3.3094730696\C,-4.68401199,0.8351073276,2.5814294
 \H,-4.6437133178,1.5782472353,1.784107171\H,-6.6662952193,-0.125255900
 7,5.1796329621\\Version=EM64L-G09RevD.01\HF=-912.1859329\RMSD=7.281e-0
 9\RMSF=1.630e-06\Dipole=-1.4433543,0.5832304,1.1401298\Quadrupole=7.24
 11889,-14.483919,7.2427301,-2.2412696,-1.0514927,-2.555743\PG=C01 [X(C
 15H11B1F2N2)]\\@


 REALITY IS FOR PEOPLE WHO CAN'T FACE SCIENCE FICTION.
 Warning:  fchk array  ILSW element          12 has value       6710886400000 set to -1.
 Job cpu time:       0 days  0 hours 39 minutes 15.7 seconds.
 File lengths (MBytes):  RWF=    459 Int=      0 D2E=      0 Chk=     36 Scr=      1
 Normal termination of Gaussian 09 at Fri Sep 28 20:26:22 2018.
