 Entering Gaussian System, Link 0=g09
 Initial command:
 /scratch/prg/gaussian/bin/g09/l1.exe "/scratch/home/stetol/gaussian/bodipy/study/4_opt_dipoles/phenyl-tolu-optR1/Gau-24227.inp" -scrdir="/scratch/home/stetol/gaussian/bodipy/study/4_opt_dipoles/phenyl-tolu-optR1/"
 Default is to use a total of  12 processors:
                               12 via shared-memory
                                1 via Linda
 Entering Link 1 = /scratch/prg/gaussian/bin/g09/l1.exe PID=     24228.
  
 Copyright (c) 1988,1990,1992,1993,1995,1998,2003,2009,2013,
            Gaussian, Inc.  All Rights Reserved.
  
 This is part of the Gaussian(R) 09 program.  It is based on
 the Gaussian(R) 03 system (copyright 2003, Gaussian, Inc.),
 the Gaussian(R) 98 system (copyright 1998, Gaussian, Inc.),
 the Gaussian(R) 94 system (copyright 1995, Gaussian, Inc.),
 the Gaussian 92(TM) system (copyright 1992, Gaussian, Inc.),
 the Gaussian 90(TM) system (copyright 1990, Gaussian, Inc.),
 the Gaussian 88(TM) system (copyright 1988, Gaussian, Inc.),
 the Gaussian 86(TM) system (copyright 1986, Carnegie Mellon
 University), and the Gaussian 82(TM) system (copyright 1983,
 Carnegie Mellon University). Gaussian is a federally registered
 trademark of Gaussian, Inc.
  
 This software contains proprietary and confidential information,
 including trade secrets, belonging to Gaussian, Inc.
  
 This software is provided under written license and may be
 used, copied, transmitted, or stored only in accord with that
 written license.
  
 The following legend is applicable only to US Government
 contracts under FAR:
  
                    RESTRICTED RIGHTS LEGEND
  
 Use, reproduction and disclosure by the US Government is
 subject to restrictions as set forth in subparagraphs (a)
 and (c) of the Commercial Computer Software - Restricted
 Rights clause in FAR 52.227-19.
  
 Gaussian, Inc.
 340 Quinnipiac St., Bldg. 40, Wallingford CT 06492
  
  
 ---------------------------------------------------------------
 Warning -- This program may not be used in any manner that
 competes with the business of Gaussian, Inc. or will provide
 assistance to any competitor of Gaussian, Inc.  The licensee
 of this program is prohibited from giving any competitor of
 Gaussian, Inc. access to this program.  By using this program,
 the user acknowledges that Gaussian, Inc. is engaged in the
 business of creating and licensing software in the field of
 computational chemistry and represents and warrants to the
 licensee that it is not a competitor of Gaussian, Inc. and that
 it will not use this program in any manner prohibited above.
 ---------------------------------------------------------------
  

 Cite this work as:
 Gaussian 09, Revision D.01,
 M. J. Frisch, G. W. Trucks, H. B. Schlegel, G. E. Scuseria, 
 M. A. Robb, J. R. Cheeseman, G. Scalmani, V. Barone, B. Mennucci, 
 G. A. Petersson, H. Nakatsuji, M. Caricato, X. Li, H. P. Hratchian, 
 A. F. Izmaylov, J. Bloino, G. Zheng, J. L. Sonnenberg, M. Hada, 
 M. Ehara, K. Toyota, R. Fukuda, J. Hasegawa, M. Ishida, T. Nakajima, 
 Y. Honda, O. Kitao, H. Nakai, T. Vreven, J. A. Montgomery, Jr., 
 J. E. Peralta, F. Ogliaro, M. Bearpark, J. J. Heyd, E. Brothers, 
 K. N. Kudin, V. N. Staroverov, T. Keith, R. Kobayashi, J. Normand, 
 K. Raghavachari, A. Rendell, J. C. Burant, S. S. Iyengar, J. Tomasi, 
 M. Cossi, N. Rega, J. M. Millam, M. Klene, J. E. Knox, J. B. Cross, 
 V. Bakken, C. Adamo, J. Jaramillo, R. Gomperts, R. E. Stratmann, 
 O. Yazyev, A. J. Austin, R. Cammi, C. Pomelli, J. W. Ochterski, 
 R. L. Martin, K. Morokuma, V. G. Zakrzewski, G. A. Voth, 
 P. Salvador, J. J. Dannenberg, S. Dapprich, A. D. Daniels, 
 O. Farkas, J. B. Foresman, J. V. Ortiz, J. Cioslowski, 
 and D. J. Fox, Gaussian, Inc., Wallingford CT, 2013.
 
 ******************************************
 Gaussian 09:  EM64L-G09RevD.01 24-Apr-2013
                30-Sep-2018 
 ******************************************
 %LindaWorkers=fizika29-ib.bullx,fizika30-ib.bullx,fizika31-ib.bullx,fizika32-ib.
 bullx
 %chk=bodipy.chk
 SetLPE:  input flags=""
 SetLPE:    new flags=" -nodelist 'fizika29-ib.bullx fizika30-ib.bullx fizika31-ib.bullx fizika32-ib.bullx'"
 Will use up to    4 processors via Linda.
 Default route:  MaxDisk=50000GB
 ----------------------------------------------------------------------
 #p m062x cc-pvdz scrf=(cpcm,solvent=Toluene) td=(nstate=6,root=1) opt=
 tight nosymm density=all int=ultrafine fchk
 ----------------------------------------------------------------------
 1/7=10,14=-1,18=20,19=15,26=4,38=1/1,3;
 2/9=110,12=2,15=1,17=6,18=5,40=1/2;
 3/5=16,11=9,16=1,25=1,30=1,70=2101,71=1,72=13,74=-55,75=-5/1,2,8,3;
 4//1;
 5/5=2,38=5,53=13/2;
 8/6=1,10=1,107=1,108=6/1;
 9/8=1,15=2,30=10,41=6,42=1,70=2/14;
 10/5=4,31=1/2;
 6/7=2,8=2,9=2,10=2,22=-2/1;
 7/12=6,13=5,14=1,30=1/1,2,3,16;
 1/7=10,14=-1,18=20,19=15,26=4/3(2);
 2/9=110,15=1/2;
 99//99;
 2/9=110,15=1/2;
 3/5=16,11=9,16=1,25=1,30=1,70=2105,71=1,72=13,74=-55,75=-5/1,2,8,3;
 4/5=5,16=3,69=1/1;
 5/5=2,38=5,53=13/2;
 8/6=1,10=1,107=1,108=6/1;
 9/8=1,15=2,30=10,41=6,42=1,49=4,70=2/14;
 10/5=4,31=1/2;
 7/12=6,13=5,14=1,30=1/1,2,3,16;
 1/7=10,14=-1,18=20,19=15,26=4/3(-8);
 2/9=110,15=1/2;
 6/7=2,8=2,9=2,10=2,22=-2/1;
 99//99;
 Leave Link    1 at Sun Sep 30 08:38:48 2018, MaxMem=           0 cpu:        56.1
 (Enter /scratch/prg/gaussian/bin/g09/l101.exe)
 ----------------------------------------------
 BODIPY-phenyl at around S1R minimum in toluene
 ----------------------------------------------
 Symbolic Z-matrix:
 Charge =  0 Multiplicity = 1
 B                    -0.24514   1.01713   0.38229 
 N                    -0.07497   0.09783   1.62473 
 C                     1.04678  -0.39035   2.15607 
 H                     2.01625  -0.12319   1.7423 
 C                     0.72596  -1.23594   3.24833 
 H                     1.44297  -1.75787   3.87541 
 C                    -0.66082  -1.26008   3.35043 
 H                    -1.26389  -1.8401    4.04242 
 C                    -1.16779  -0.39825   2.34251 
 C                    -2.51445  -0.10182   1.90718 
 N                    -1.52252   0.43197  -0.28411 
 C                    -1.78465   0.26172  -1.58069 
 H                    -1.07369   0.58842  -2.33584 
 C                    -3.04601  -0.36854  -1.73125 
 H                    -3.51953  -0.61717  -2.67661 
 C                    -3.54115  -0.59825  -0.45209 
 H                    -4.46043  -1.10805  -0.18046 
 C                    -2.59312  -0.06949   0.46308 
 F                    -0.45873   2.33183   0.77441 
 F                     0.8428    0.88943  -0.4654 
 C                    -3.62521   0.12944   2.79266 
 C                    -3.46065   0.09611   4.19939 
 H                    -2.46896  -0.05599   4.62292 
 C                    -4.53884   0.29581   5.04973 
 H                    -4.38122   0.27242   6.12852 
 C                    -5.81558   0.53536   4.53447 
 C                    -5.99377   0.59686   3.14979 
 H                    -6.97979   0.80951   2.73539 
 C                    -4.92226   0.39861   2.29063 
 H                    -5.07847   0.48364   1.21638 
 H                    -6.66055   0.68902   5.20584 
 
 NAtoms=     31 NQM=       31 NQMF=       0 NMMI=      0 NMMIF=      0
                NMic=       0 NMicF=      0.
                    Isotopes and Nuclear Properties:
 (Nuclear quadrupole moments (NQMom) in fm**2, nuclear magnetic moments (NMagM)
  in nuclear magnetons)

  Atom         1           2           3           4           5           6           7           8           9          10
 IAtWgt=          11          14          12           1          12           1          12           1          12          12
 AtmWgt=  11.0093053  14.0030740  12.0000000   1.0078250  12.0000000   1.0078250  12.0000000   1.0078250  12.0000000  12.0000000
 NucSpn=           3           2           0           1           0           1           0           1           0           0
 AtZEff=   0.0000000   0.0000000   0.0000000   0.0000000   0.0000000   0.0000000   0.0000000   0.0000000   0.0000000   0.0000000
 NQMom=    4.0590000   2.0440000   0.0000000   0.0000000   0.0000000   0.0000000   0.0000000   0.0000000   0.0000000   0.0000000
 NMagM=    2.6886370   0.4037610   0.0000000   2.7928460   0.0000000   2.7928460   0.0000000   2.7928460   0.0000000   0.0000000
 AtZNuc=   5.0000000   7.0000000   6.0000000   1.0000000   6.0000000   1.0000000   6.0000000   1.0000000   6.0000000   6.0000000

  Atom        11          12          13          14          15          16          17          18          19          20
 IAtWgt=          14          12           1          12           1          12           1          12          19          19
 AtmWgt=  14.0030740  12.0000000   1.0078250  12.0000000   1.0078250  12.0000000   1.0078250  12.0000000  18.9984033  18.9984033
 NucSpn=           2           0           1           0           1           0           1           0           1           1
 AtZEff=   0.0000000   0.0000000   0.0000000   0.0000000   0.0000000   0.0000000   0.0000000   0.0000000   0.0000000   0.0000000
 NQMom=    2.0440000   0.0000000   0.0000000   0.0000000   0.0000000   0.0000000   0.0000000   0.0000000   0.0000000   0.0000000
 NMagM=    0.4037610   0.0000000   2.7928460   0.0000000   2.7928460   0.0000000   2.7928460   0.0000000   2.6288670   2.6288670
 AtZNuc=   7.0000000   6.0000000   1.0000000   6.0000000   1.0000000   6.0000000   1.0000000   6.0000000   9.0000000   9.0000000

  Atom        21          22          23          24          25          26          27          28          29          30
 IAtWgt=          12          12           1          12           1          12          12           1          12           1
 AtmWgt=  12.0000000  12.0000000   1.0078250  12.0000000   1.0078250  12.0000000  12.0000000   1.0078250  12.0000000   1.0078250
 NucSpn=           0           0           1           0           1           0           0           1           0           1
 AtZEff=   0.0000000   0.0000000   0.0000000   0.0000000   0.0000000   0.0000000   0.0000000   0.0000000   0.0000000   0.0000000
 NQMom=    0.0000000   0.0000000   0.0000000   0.0000000   0.0000000   0.0000000   0.0000000   0.0000000   0.0000000   0.0000000
 NMagM=    0.0000000   0.0000000   2.7928460   0.0000000   2.7928460   0.0000000   0.0000000   2.7928460   0.0000000   2.7928460
 AtZNuc=   6.0000000   6.0000000   1.0000000   6.0000000   1.0000000   6.0000000   6.0000000   1.0000000   6.0000000   1.0000000

  Atom        31
 IAtWgt=           1
 AtmWgt=   1.0078250
 NucSpn=           1
 AtZEff=   0.0000000
 NQMom=    0.0000000
 NMagM=    2.7928460
 AtZNuc=   1.0000000
 Leave Link  101 at Sun Sep 30 08:39:05 2018, MaxMem= 12079595520 cpu:        92.7
 (Enter /scratch/prg/gaussian/bin/g09/l103.exe)

 GradGradGradGradGradGradGradGradGradGradGradGradGradGradGradGradGradGrad
 Berny optimization.
 Initialization pass.
                           ----------------------------
                           !    Initial Parameters    !
                           ! (Angstroms and Degrees)  !
 --------------------------                            --------------------------
 ! Name  Definition              Value          Derivative Info.                !
 --------------------------------------------------------------------------------
 ! R1    R(1,2)                  1.5549         estimate D2E/DX2                !
 ! R2    R(1,11)                 1.5551         estimate D2E/DX2                !
 ! R3    R(1,19)                 1.3885         estimate D2E/DX2                !
 ! R4    R(1,20)                 1.3851         estimate D2E/DX2                !
 ! R5    R(2,3)                  1.3338         estimate D2E/DX2                !
 ! R6    R(2,9)                  1.3984         estimate D2E/DX2                !
 ! R7    R(3,4)                  1.0874         estimate D2E/DX2                !
 ! R8    R(3,5)                  1.4181         estimate D2E/DX2                !
 ! R9    R(5,6)                  1.0862         estimate D2E/DX2                !
 ! R10   R(5,7)                  1.3907         estimate D2E/DX2                !
 ! R11   R(7,8)                  1.0858         estimate D2E/DX2                !
 ! R12   R(7,9)                  1.4197         estimate D2E/DX2                !
 ! R13   R(9,10)                 1.446          estimate D2E/DX2                !
 ! R14   R(10,18)                1.4466         estimate D2E/DX2                !
 ! R15   R(10,21)                1.4392         estimate D2E/DX2                !
 ! R16   R(11,12)                1.3337         estimate D2E/DX2                !
 ! R17   R(11,18)                1.3985         estimate D2E/DX2                !
 ! R18   R(12,13)                1.0874         estimate D2E/DX2                !
 ! R19   R(12,14)                1.4181         estimate D2E/DX2                !
 ! R20   R(14,15)                1.0862         estimate D2E/DX2                !
 ! R21   R(14,16)                1.3908         estimate D2E/DX2                !
 ! R22   R(16,17)                1.0857         estimate D2E/DX2                !
 ! R23   R(16,18)                1.4198         estimate D2E/DX2                !
 ! R24   R(21,22)                1.4167         estimate D2E/DX2                !
 ! R25   R(21,29)                1.4166         estimate D2E/DX2                !
 ! R26   R(22,23)                1.089          estimate D2E/DX2                !
 ! R27   R(22,24)                1.3876         estimate D2E/DX2                !
 ! R28   R(24,25)                1.0905         estimate D2E/DX2                !
 ! R29   R(24,26)                1.3975         estimate D2E/DX2                !
 ! R30   R(26,27)                1.3974         estimate D2E/DX2                !
 ! R31   R(26,31)                1.0901         estimate D2E/DX2                !
 ! R32   R(27,28)                1.0905         estimate D2E/DX2                !
 ! R33   R(27,29)                1.3877         estimate D2E/DX2                !
 ! R34   R(29,30)                1.0889         estimate D2E/DX2                !
 ! A1    A(2,1,11)             102.1134         estimate D2E/DX2                !
 ! A2    A(2,1,19)             110.5479         estimate D2E/DX2                !
 ! A3    A(2,1,20)             110.3989         estimate D2E/DX2                !
 ! A4    A(11,1,19)            110.5461         estimate D2E/DX2                !
 ! A5    A(11,1,20)            110.3805         estimate D2E/DX2                !
 ! A6    A(19,1,20)            112.3934         estimate D2E/DX2                !
 ! A7    A(1,2,3)              128.8114         estimate D2E/DX2                !
 ! A8    A(1,2,9)              122.2995         estimate D2E/DX2                !
 ! A9    A(3,2,9)              108.8398         estimate D2E/DX2                !
 ! A10   A(2,3,4)              120.5513         estimate D2E/DX2                !
 ! A11   A(2,3,5)              109.5615         estimate D2E/DX2                !
 ! A12   A(4,3,5)              129.8872         estimate D2E/DX2                !
 ! A13   A(3,5,6)              125.5817         estimate D2E/DX2                !
 ! A14   A(3,5,7)              107.007          estimate D2E/DX2                !
 ! A15   A(6,5,7)              127.4113         estimate D2E/DX2                !
 ! A16   A(5,7,8)              127.5816         estimate D2E/DX2                !
 ! A17   A(5,7,9)              107.0622         estimate D2E/DX2                !
 ! A18   A(8,7,9)              125.337          estimate D2E/DX2                !
 ! A19   A(2,9,7)              107.4988         estimate D2E/DX2                !
 ! A20   A(2,9,10)             120.0357         estimate D2E/DX2                !
 ! A21   A(7,9,10)             132.1235         estimate D2E/DX2                !
 ! A22   A(9,10,18)            110.8407         estimate D2E/DX2                !
 ! A23   A(9,10,21)            124.5053         estimate D2E/DX2                !
 ! A24   A(18,10,21)           124.654          estimate D2E/DX2                !
 ! A25   A(1,11,12)            128.7612         estimate D2E/DX2                !
 ! A26   A(1,11,18)            122.3299         estimate D2E/DX2                !
 ! A27   A(12,11,18)           108.8542         estimate D2E/DX2                !
 ! A28   A(11,12,13)           120.5484         estimate D2E/DX2                !
 ! A29   A(11,12,14)           109.5585         estimate D2E/DX2                !
 ! A30   A(13,12,14)           129.8929         estimate D2E/DX2                !
 ! A31   A(12,14,15)           125.5867         estimate D2E/DX2                !
 ! A32   A(12,14,16)           107.0037         estimate D2E/DX2                !
 ! A33   A(15,14,16)           127.4096         estimate D2E/DX2                !
 ! A34   A(14,16,17)           127.5255         estimate D2E/DX2                !
 ! A35   A(14,16,18)           107.0746         estimate D2E/DX2                !
 ! A36   A(17,16,18)           125.3784         estimate D2E/DX2                !
 ! A37   A(10,18,11)           119.9812         estimate D2E/DX2                !
 ! A38   A(10,18,16)           132.1785         estimate D2E/DX2                !
 ! A39   A(11,18,16)           107.476          estimate D2E/DX2                !
 ! A40   A(10,21,22)           121.1637         estimate D2E/DX2                !
 ! A41   A(10,21,29)           121.274          estimate D2E/DX2                !
 ! A42   A(22,21,29)           117.5623         estimate D2E/DX2                !
 ! A43   A(21,22,23)           119.6846         estimate D2E/DX2                !
 ! A44   A(21,22,24)           120.9872         estimate D2E/DX2                !
 ! A45   A(23,22,24)           119.298          estimate D2E/DX2                !
 ! A46   A(22,24,25)           119.3952         estimate D2E/DX2                !
 ! A47   A(22,24,26)           120.5709         estimate D2E/DX2                !
 ! A48   A(25,24,26)           120.0321         estimate D2E/DX2                !
 ! A49   A(24,26,27)           119.2999         estimate D2E/DX2                !
 ! A50   A(24,26,31)           120.3471         estimate D2E/DX2                !
 ! A51   A(27,26,31)           120.3453         estimate D2E/DX2                !
 ! A52   A(26,27,28)           120.0275         estimate D2E/DX2                !
 ! A53   A(26,27,29)           120.5797         estimate D2E/DX2                !
 ! A54   A(28,27,29)           119.3912         estimate D2E/DX2                !
 ! A55   A(21,29,27)           120.9788         estimate D2E/DX2                !
 ! A56   A(21,29,30)           119.7232         estimate D2E/DX2                !
 ! A57   A(27,29,30)           119.2686         estimate D2E/DX2                !
 ! D1    D(11,1,2,3)           141.0291         estimate D2E/DX2                !
 ! D2    D(11,1,2,9)           -36.1197         estimate D2E/DX2                !
 ! D3    D(19,1,2,3)          -101.3389         estimate D2E/DX2                !
 ! D4    D(19,1,2,9)            81.5124         estimate D2E/DX2                !
 ! D5    D(20,1,2,3)            23.653          estimate D2E/DX2                !
 ! D6    D(20,1,2,9)          -153.4957         estimate D2E/DX2                !
 ! D7    D(2,1,11,12)         -140.8756         estimate D2E/DX2                !
 ! D8    D(2,1,11,18)           36.1238         estimate D2E/DX2                !
 ! D9    D(19,1,11,12)         101.4911         estimate D2E/DX2                !
 ! D10   D(19,1,11,18)         -81.5095         estimate D2E/DX2                !
 ! D11   D(20,1,11,12)         -23.4863         estimate D2E/DX2                !
 ! D12   D(20,1,11,18)         153.513          estimate D2E/DX2                !
 ! D13   D(1,2,3,4)              2.6645         estimate D2E/DX2                !
 ! D14   D(1,2,3,5)           -177.2312         estimate D2E/DX2                !
 ! D15   D(9,2,3,4)           -179.8818         estimate D2E/DX2                !
 ! D16   D(9,2,3,5)              0.2225         estimate D2E/DX2                !
 ! D17   D(1,2,9,7)            176.4129         estimate D2E/DX2                !
 ! D18   D(1,2,9,10)             2.3408         estimate D2E/DX2                !
 ! D19   D(3,2,9,7)             -1.2399         estimate D2E/DX2                !
 ! D20   D(3,2,9,10)          -175.312          estimate D2E/DX2                !
 ! D21   D(2,3,5,6)           -179.0994         estimate D2E/DX2                !
 ! D22   D(2,3,5,7)              0.9001         estimate D2E/DX2                !
 ! D23   D(4,3,5,6)              1.0176         estimate D2E/DX2                !
 ! D24   D(4,3,5,7)           -178.9828         estimate D2E/DX2                !
 ! D25   D(3,5,7,8)            176.834          estimate D2E/DX2                !
 ! D26   D(3,5,7,9)             -1.6267         estimate D2E/DX2                !
 ! D27   D(6,5,7,8)             -3.1664         estimate D2E/DX2                !
 ! D28   D(6,5,7,9)            178.3728         estimate D2E/DX2                !
 ! D29   D(5,7,9,2)              1.7753         estimate D2E/DX2                !
 ! D30   D(5,7,9,10)           174.8517         estimate D2E/DX2                !
 ! D31   D(8,7,9,2)           -176.7294         estimate D2E/DX2                !
 ! D32   D(8,7,9,10)            -3.653          estimate D2E/DX2                !
 ! D33   D(2,9,10,18)           35.8379         estimate D2E/DX2                !
 ! D34   D(2,9,10,21)         -144.166          estimate D2E/DX2                !
 ! D35   D(7,9,10,18)         -136.5307         estimate D2E/DX2                !
 ! D36   D(7,9,10,21)           43.4654         estimate D2E/DX2                !
 ! D37   D(9,10,18,11)         -35.8256         estimate D2E/DX2                !
 ! D38   D(9,10,18,16)         136.2956         estimate D2E/DX2                !
 ! D39   D(21,10,18,11)        144.1784         estimate D2E/DX2                !
 ! D40   D(21,10,18,16)        -43.7004         estimate D2E/DX2                !
 ! D41   D(9,10,21,22)           0.7998         estimate D2E/DX2                !
 ! D42   D(9,10,21,29)        -179.2037         estimate D2E/DX2                !
 ! D43   D(18,10,21,22)       -179.2047         estimate D2E/DX2                !
 ! D44   D(18,10,21,29)          0.7918         estimate D2E/DX2                !
 ! D45   D(1,11,12,13)          -2.7891         estimate D2E/DX2                !
 ! D46   D(1,11,12,14)         177.0761         estimate D2E/DX2                !
 ! D47   D(18,11,12,13)        179.8899         estimate D2E/DX2                !
 ! D48   D(18,11,12,14)         -0.2449         estimate D2E/DX2                !
 ! D49   D(1,11,18,10)          -2.346          estimate D2E/DX2                !
 ! D50   D(1,11,18,16)        -176.2325         estimate D2E/DX2                !
 ! D51   D(12,11,18,10)        175.1819         estimate D2E/DX2                !
 ! D52   D(12,11,18,16)          1.2954         estimate D2E/DX2                !
 ! D53   D(11,12,14,15)        179.0959         estimate D2E/DX2                !
 ! D54   D(11,12,14,16)         -0.9203         estimate D2E/DX2                !
 ! D55   D(13,12,14,15)         -1.0555         estimate D2E/DX2                !
 ! D56   D(13,12,14,16)        178.9283         estimate D2E/DX2                !
 ! D57   D(12,14,16,17)       -176.6925         estimate D2E/DX2                !
 ! D58   D(12,14,16,18)          1.6805         estimate D2E/DX2                !
 ! D59   D(15,14,16,17)          3.2909         estimate D2E/DX2                !
 ! D60   D(15,14,16,18)       -178.3361         estimate D2E/DX2                !
 ! D61   D(14,16,18,10)       -174.6915         estimate D2E/DX2                !
 ! D62   D(14,16,18,11)         -1.8423         estimate D2E/DX2                !
 ! D63   D(17,16,18,10)          3.7259         estimate D2E/DX2                !
 ! D64   D(17,16,18,11)        176.5751         estimate D2E/DX2                !
 ! D65   D(10,21,22,23)          3.1811         estimate D2E/DX2                !
 ! D66   D(10,21,22,24)       -178.8317         estimate D2E/DX2                !
 ! D67   D(29,21,22,23)       -176.8155         estimate D2E/DX2                !
 ! D68   D(29,21,22,24)          1.1716         estimate D2E/DX2                !
 ! D69   D(10,21,29,27)        178.8288         estimate D2E/DX2                !
 ! D70   D(10,21,29,30)         -3.1565         estimate D2E/DX2                !
 ! D71   D(22,21,29,27)         -1.1745         estimate D2E/DX2                !
 ! D72   D(22,21,29,30)        176.8401         estimate D2E/DX2                !
 ! D73   D(21,22,24,25)       -179.5235         estimate D2E/DX2                !
 ! D74   D(21,22,24,26)         -0.0125         estimate D2E/DX2                !
 ! D75   D(23,22,24,25)         -1.5287         estimate D2E/DX2                !
 ! D76   D(23,22,24,26)        177.9823         estimate D2E/DX2                !
 ! D77   D(22,24,26,27)         -1.1741         estimate D2E/DX2                !
 ! D78   D(22,24,26,31)        179.8306         estimate D2E/DX2                !
 ! D79   D(25,24,26,27)        178.3338         estimate D2E/DX2                !
 ! D80   D(25,24,26,31)         -0.6615         estimate D2E/DX2                !
 ! D81   D(24,26,27,28)       -178.3696         estimate D2E/DX2                !
 ! D82   D(24,26,27,29)          1.1712         estimate D2E/DX2                !
 ! D83   D(31,26,27,28)          0.6257         estimate D2E/DX2                !
 ! D84   D(31,26,27,29)       -179.8335         estimate D2E/DX2                !
 ! D85   D(26,27,29,21)          0.0185         estimate D2E/DX2                !
 ! D86   D(26,27,29,30)       -178.005          estimate D2E/DX2                !
 ! D87   D(28,27,29,21)        179.5622         estimate D2E/DX2                !
 ! D88   D(28,27,29,30)          1.5387         estimate D2E/DX2                !
 --------------------------------------------------------------------------------
 Trust Radius=3.00D-01 FncErr=1.00D-07 GrdErr=1.00D-06
 Number of steps in this run=    186 maximum allowed number of steps=    186.
 GradGradGradGradGradGradGradGradGradGradGradGradGradGradGradGradGradGrad

 Leave Link  103 at Sun Sep 30 08:39:33 2018, MaxMem= 12079595520 cpu:       136.8
 (Enter /scratch/prg/gaussian/bin/g09/l202.exe)
                          Input orientation:                          
 ---------------------------------------------------------------------
 Center     Atomic      Atomic             Coordinates (Angstroms)
 Number     Number       Type             X           Y           Z
 ---------------------------------------------------------------------
      1          5           0       -0.245135    1.017125    0.382288
      2          7           0       -0.074965    0.097829    1.624730
      3          6           0        1.046779   -0.390351    2.156069
      4          1           0        2.016250   -0.123191    1.742304
      5          6           0        0.725955   -1.235942    3.248328
      6          1           0        1.442971   -1.757865    3.875406
      7          6           0       -0.660821   -1.260081    3.350429
      8          1           0       -1.263888   -1.840097    4.042420
      9          6           0       -1.167787   -0.398253    2.342508
     10          6           0       -2.514445   -0.101819    1.907182
     11          7           0       -1.522523    0.431973   -0.284106
     12          6           0       -1.784648    0.261718   -1.580692
     13          1           0       -1.073694    0.588419   -2.335844
     14          6           0       -3.046009   -0.368541   -1.731254
     15          1           0       -3.519534   -0.617174   -2.676606
     16          6           0       -3.541148   -0.598254   -0.452085
     17          1           0       -4.460433   -1.108051   -0.180461
     18          6           0       -2.593121   -0.069487    0.463081
     19          9           0       -0.458725    2.331834    0.774410
     20          9           0        0.842804    0.889428   -0.465400
     21          6           0       -3.625212    0.129435    2.792664
     22          6           0       -3.460648    0.096110    4.199394
     23          1           0       -2.468957   -0.055992    4.622915
     24          6           0       -4.538840    0.295805    5.049731
     25          1           0       -4.381215    0.272420    6.128518
     26          6           0       -5.815578    0.535360    4.534467
     27          6           0       -5.993772    0.596859    3.149790
     28          1           0       -6.979791    0.809513    2.735390
     29          6           0       -4.922264    0.398612    2.290629
     30          1           0       -5.078466    0.483642    1.216375
     31          1           0       -6.660546    0.689019    5.205842
 ---------------------------------------------------------------------
                    Distance matrix (angstroms):
                    1          2          3          4          5
     1  B    0.000000
     2  N    1.554904   0.000000
     3  C    2.606977   1.333773   0.000000
     4  H    2.874687   2.106147   1.087405   0.000000
     5  C    3.772733   2.248664   1.418091   2.274024   0.000000
     6  H    4.769921   3.288354   2.232304   2.747896   1.086159
     7  C    3.764083   2.272704   2.258058   3.323446   1.390739
     8  H    4.753750   3.318783   3.316514   4.358624   2.225997
     9  C    2.587865   1.398414   2.222414   3.251768   2.260197
    10  C    2.954167   2.463879   3.581552   4.533744   3.685797
    11  N    1.555058   2.418828   3.637579   4.115514   4.507292
    12  C    2.606536   3.636565   4.733451   5.063327   5.644958
    13  H    2.873768   4.113914   5.062774   5.165795   6.144103
    14  C    3.772536   4.506355   5.644703   6.144287   6.306848
    15  H    4.769639   5.556778   6.652624   7.100401   7.315182
    16  C    3.764217   4.100258   5.281549   5.993805   5.684001
    17  H    4.754135   4.893382   6.025268   6.827474   6.218647
    18  C    2.588492   2.778225   4.027162   4.783889   4.487146
    19  F    1.388467   2.420970   3.403794   3.617937   4.500307
    20  F    1.385097   2.416107   2.924302   2.697467   4.280494
    21  C    4.245330   3.737556   4.743725   5.743968   4.583071
    22  C    5.075243   4.253439   4.972798   6.006812   4.495168
    23  H    4.907126   3.839788   4.307845   5.330996   3.672769
    24  C    6.382886   5.629921   6.327972   7.354171   5.771427
    25  H    7.119052   6.233649   6.758900   7.766784   6.054241
    26  C    6.964375   6.450786   7.321589   8.340707   6.898066
    27  C    6.393944   6.132464   7.178539   8.164554   6.965888
    28  H    7.136931   7.029700   8.136407   9.098621   7.989087
    29  C    5.089190   4.902061   6.022462   6.979679   5.957460
    30  H    4.933700   5.034941   6.258236   7.140017   6.385695
    31  H    8.033170   7.519558   8.358769   9.377770   7.880211
                    6          7          8          9         10
     6  H    0.000000
     7  C    2.224709   0.000000
     8  H    2.713253   1.085799   0.000000
     9  C    3.318792   1.419742   2.231110   0.000000
    10  C    4.719908   2.619247   3.024028   1.445984   0.000000
    11  N    5.557975   4.100661   4.893672   2.777447   2.463856
    12  C    6.653213   5.281554   6.025629   4.025864   3.581903
    13  H    7.100583   5.993423   6.827600   4.782191   4.533813
    14  C    7.315449   5.683966   6.219063   4.485993   3.686722
    15  H    8.297981   6.701546   7.192273   5.547084   4.720901
    16  C    6.701740   4.815954   5.189283   3.671865   2.620440
    17  H    7.191835   5.189157   5.346636   4.208409   3.026157
    18  C    5.548389   3.672612   4.208751   2.381577   1.446604
    19  F    5.473414   4.424768   5.360334   3.227240   3.381098
    20  F    5.119664   4.630532   5.675288   3.685776   4.228810
    21  C    5.515497   3.321065   3.319156   2.553435   1.439222
    22  C    5.252397   3.224752   2.932455   2.991594   2.487712
    23  H    4.331088   2.517619   2.229842   2.647724   2.716501
    24  C    6.432625   4.510814   4.037581   4.378901   3.759241
    25  H    6.566560   4.889547   4.304911   5.010967   4.630827
    26  C    7.640666   5.585434   5.157789   5.222861   4.266861
    27  C    7.834309   5.650562   5.395122   4.993204   3.760045
    28  H    8.878850   6.677640   6.434307   5.949155   4.632037
    29  C    6.904935   4.694074   4.632959   3.838461   2.488987
    30  H    7.390801   5.206759   5.285575   4.164051   2.719225
    31  H    8.568797   6.575580   6.072388   6.288978   5.356933
                   11         12         13         14         15
    11  N    0.000000
    12  C    1.333728   0.000000
    13  H    2.106075   1.087402   0.000000
    14  C    2.248571   1.418072   2.274055   0.000000
    15  H    3.288285   2.232332   2.748037   1.086156   0.000000
    16  C    2.272539   2.258007   3.323412   1.390757   2.224706
    17  H    3.318694   3.316133   4.358175   2.225405   2.712377
    18  C    1.398546   2.222686   3.251996   2.260453   3.319011
    19  F    2.421073   3.404403   3.618199   4.501601   5.474917
    20  F    2.415969   2.922567   2.694834   4.278754   5.117546
    21  C    3.738896   4.746727   5.746521   4.587951   5.521006
    22  C    4.896009   6.020448   6.974902   5.963255   6.913148
    23  H    5.021225   6.249317   7.126454   6.387968   7.396056
    24  C    6.129154   7.179780   8.163307   6.975074   7.846579
    25  H    7.022772   8.134752   9.093128   7.998101   8.891798
    26  C    6.454429   7.329287   8.348021   6.909907   7.655046
    27  C    5.640115   6.340860   7.368814   5.783243   6.445356
    28  H    6.248333   6.776294   7.787700   6.067401   6.580161
    29  C    4.264811   4.985028   6.020944   4.503821   5.260503
    30  H    3.859902   4.326901   5.354198   3.680437   4.335593
    31  H    7.523622   8.367438   9.386163   7.893454   8.585166
                   16         17         18         19         20
    16  C    0.000000
    17  H    1.085706   0.000000
    18  C    1.419816   2.231505   0.000000
    19  F    4.426176   5.362672   3.227834   0.000000
    20  F    4.629515   5.674102   3.686079   2.304700   0.000000
    21  C    3.326409   3.326926   2.555727   4.353223   5.581732
    22  C    4.703709   4.651097   3.839279   5.073511   6.396042
    23  H    5.215292   5.305207   4.161709   4.955173   6.144309
    24  C    5.662571   5.415890   4.995660   6.250690   7.728593
    25  H    6.690898   6.458730   5.950744   6.949359   8.435095
    26  C    5.596768   5.173757   5.227452   6.786842   8.334152
    27  C    4.518536   4.043318   4.384843   6.268119   7.739119
    28  H    4.895515   4.304231   5.017858   6.977622   8.452481
    29  C    3.228576   2.930803   2.997325   5.095041   6.408791
    30  H    2.513485   2.206038   2.655248   4.995313   6.168830
    31  H    6.587857   6.089517   6.293891   7.797372   9.407625
                   21         22         23         24         25
    21  C    0.000000
    22  C    1.416715   0.000000
    23  H    2.172816   1.089016   0.000000
    24  C    2.440645   1.387606   2.142510   0.000000
    25  H    3.423435   2.144772   2.455896   1.090492   0.000000
    26  C    2.827783   2.418865   3.399617   1.397478   2.160447
    27  C    2.440512   2.787317   3.875646   2.411895   3.402708
    28  H    3.423301   3.877708   4.965831   3.402692   4.307480
    29  C    1.416630   2.423059   3.415397   2.787513   3.877893
    30  H    2.173039   3.415541   4.324957   3.875706   4.965876
    31  H    3.917884   3.406439   4.297006   2.163475   2.494040
                   26         27         28         29         30
    26  C    0.000000
    27  C    1.397450   0.000000
    28  H    2.160377   1.090496   0.000000
    29  C    2.418991   1.387656   2.144777   0.000000
    30  H    3.399374   2.142124   2.455328   1.088876   0.000000
    31  H    1.090104   2.163430   2.493906   3.406527   4.296627
                   31
    31  H    0.000000
 Symmetry turned off by external request.
 Stoichiometry    C15H11BF2N2
 Framework group  C1[X(C15H11BF2N2)]
 Deg. of freedom    87
 Full point group                 C1      NOp   1
 Rotational constants (GHZ):      0.5502010      0.2877855      0.2183119
 Leave Link  202 at Sun Sep 30 08:39:52 2018, MaxMem= 12079595520 cpu:        65.1
 (Enter /scratch/prg/gaussian/bin/g09/l301.exe)
 Standard basis: CC-pVDZ (5D, 7F)
 Ernie: Thresh=  0.10000D-02 Tol=  0.10000D-05 Strict=F.
 Ernie:  40 primitive shells out of 495 were deleted.
   335 basis functions,   737 primitive gaussians,   355 cartesian basis functions
    69 alpha electrons       69 beta electrons
       nuclear repulsion energy      1473.2339788055 Hartrees.
 IExCor= 4336 DFT=T Ex+Corr=M062X ExCW=0 ScaHFX=  0.540000
 ScaDFX=  1.000000  1.000000  1.000000  1.000000 ScalE2=  1.000000  1.000000
 IRadAn=      5 IRanWt=     -1 IRanGd=            0 ICorTp=0 IEmpDi=  4
 NAtoms=   31 NActive=   31 NUniq=   31 SFac= 1.00D+00 NAtFMM=   60 NAOKFM=F Big=F
 Integral buffers will be    131072 words long.
 Regular integral format.
 Two-electron integral symmetry is turned off.
 ------------------------------------------------------------------------------
 Polarizable Continuum Model (PCM)
 =================================
 Model                : C-PCM.
 Atomic radii         : UFF (Universal Force Field).
 Polarization charges : Total charges.
 Charge compensation  : None.
 Solution method      : On-the-fly selection.
 Cavity type          : Scaled VdW (van der Waals Surface) (Alpha=1.100).
 Cavity algorithm     : GePol (No added spheres)
                        Default sphere list used, NSphG=   31.
                        Lebedev-Laikov grids with approx.  5.0 points / Ang**2.
                        Smoothing algorithm: Karplus/York (Gamma=1.0000).
                        Polarization charges: spherical gaussians, with
                                              point-specific exponents (IZeta= 3).
                        Self-potential: point-specific (ISelfS= 7).
                        Self-field    : sphere-specific E.n sum rule (ISelfD= 2).
 1st derivatives      : Analytical E(r).r(x)/FMM algorithm (CHGder, D1EAlg=3).
                        Cavity 1st derivative terms included.
 Solvent              : Toluene, Eps=   2.374100 Eps(inf)=   2.238315
 ------------------------------------------------------------------------------
 GePol: Number of generator spheres                  =      31
 GePol: Total number of spheres                      =      31
 GePol: Number of exposed spheres                    =      31 (100.00%)
 GePol: Number of points                             =    2493
 GePol: Average weight of points                     =       0.13
 GePol: Minimum weight of points                     =   0.33D-10
 GePol: Maximum weight of points                     =    0.20577
 GePol: Number of points with low weight             =     175
 GePol: Fraction of low-weight points (<1% of avg)   =       7.02%
 GePol: Cavity surface area                          =    312.620 Ang**2
 GePol: Cavity volume                                =    344.202 Ang**3
 Leave Link  301 at Sun Sep 30 08:41:58 2018, MaxMem= 12079595520 cpu:       610.6
 (Enter /scratch/prg/gaussian/bin/g09/linda-exe/l302.exel)
 NPDir=0 NMtPBC=     1 NCelOv=     1 NCel=       1 NClECP=     1 NCelD=      1
         NCelK=      1 NCelE2=     1 NClLst=     1 CellRange=     0.0.
 One-electron integrals computed using PRISM.
 NBasis=   335 RedAO= T EigKep=  3.02D-04  NBF=   335
 NBsUse=   335 1.00D-06 EigRej= -1.00D+00 NBFU=   335
 Precomputing XC quadrature grid using
 IXCGrd= 4 IRadAn=           5 IRanWt=          -1 IRanGd=           0 AccXCQ= 0.00D+00.
 Generated NRdTot=       0 NPtTot=           0 NUsed=           0 NTot=          32
 NSgBfM=   354   354   354   354   354 MxSgAt=    31 MxSgA2=    31.
 Leave Link  302 at Sun Sep 30 08:43:17 2018, MaxMem= 12079595520 cpu:       640.3
 (Enter /scratch/prg/gaussian/bin/g09/l308.exe)
 Leave Link  308 at Sun Sep 30 08:43:38 2018, MaxMem= 12079595520 cpu:        63.2
 (Enter /scratch/prg/gaussian/bin/g09/l303.exe)
 DipDrv:  MaxL=1.
 Leave Link  303 at Sun Sep 30 08:43:47 2018, MaxMem= 12079595520 cpu:        27.1
 (Enter /scratch/prg/gaussian/bin/g09/linda-exe/l401.exel)
 ExpMin= 9.54D-02 ExpMax= 1.47D+04 ExpMxC= 5.03D+02 IAcc=3 IRadAn=         5 AccDes= 0.00D+00
 Harris functional with IExCor= 1009 and IRadAn=       5 diagonalized for initial guess.
 HarFok:  IExCor= 1009 AccDes= 0.00D+00 IRadAn=         5 IDoV= 1 UseB2=F ITyADJ=14
 ICtDFT=  3500011 ScaDFX=  1.000000  1.000000  1.000000  1.000000
 FoFCou: FMM=F IPFlag=           0 FMFlag=      100000 FMFlg1=           0
         NFxFlg=           0 DoJE=T BraDBF=F KetDBF=T FulRan=T
         wScrn=  0.000000 ICntrl=     500 IOpCl=  0 I1Cent=   200000004 NGrid=           0
         NMat0=    1 NMatS0=      1 NMatT0=    0 NMatD0=    1 NMtDS0=    0 NMtDT0=    0
 Symmetry not used in FoFCou.
 Harris En= -911.548104460952    
 JPrj=0 DoOrth=F DoCkMO=F.
 Leave Link  401 at Sun Sep 30 08:43:50 2018, MaxMem= 12079595520 cpu:        22.7
 (Enter /scratch/prg/gaussian/bin/g09/linda-exe/l502.exel)
 Closed shell SCF:
 Using DIIS extrapolation, IDIIS=  1040.
 Two-electron integral symmetry not used.
 Keep R1 ints in memory in canonical form, NReq=1606709247.
 IVT=      403077 IEndB=      403077 NGot= 12079595520 MDV= 10495445104
 LenX= 10495445104 LenY= 10495318638
 Requested convergence on RMS density matrix=1.00D-08 within 128 cycles.
 Requested convergence on MAX density matrix=1.00D-06.
 Requested convergence on             energy=1.00D-06.
 No special actions if energy rises.
 FoFCou: FMM=F IPFlag=           0 FMFlag=           0 FMFlg1=           0
         NFxFlg=           0 DoJE=F BraDBF=F KetDBF=F FulRan=T
         wScrn=  0.000000 ICntrl=     600 IOpCl=  0 I1Cent=           0 NGrid=           0
         NMat0=    1 NMatS0=  56280 NMatT0=    0 NMatD0=    1 NMtDS0=    0 NMtDT0=    0
 Symmetry not used in FoFCou.

 Cycle   1  Pass 1  IDiag  1:
 Inv3:  Mode=1 IEnd=    18645147.
 Iteration    1 A*A^-1 deviation from unit magnitude is 7.11D-15 for   2002.
 Iteration    1 A*A^-1 deviation from orthogonality  is 3.55D-15 for   2064    708.
 Iteration    1 A^-1*A deviation from unit magnitude is 6.66D-15 for   2002.
 Iteration    1 A^-1*A deviation from orthogonality  is 3.66D-15 for   2243   2079.
 E= -911.835011139231    
 DIIS: error= 2.85D-02 at cycle   1 NSaved=   1.
 NSaved= 1 IEnMin= 1 EnMin= -911.835011139231     IErMin= 1 ErrMin= 2.85D-02
 ErrMax= 2.85D-02  0.00D+00 EMaxC= 1.00D-01 BMatC= 3.39D-01 BMatP= 3.39D-01
 IDIUse=3 WtCom= 7.15D-01 WtEn= 2.85D-01
 Coeff-Com:  0.100D+01
 Coeff-En:   0.100D+01
 Coeff:      0.100D+01
 Gap=     0.136 Goal=   None    Shift=    0.000
 GapD=    0.136 DampG=1.000 DampE=0.500 DampFc=0.5000 IDamp=-1.
 Damping current iteration by 5.00D-01
 RMSDP=3.72D-03 MaxDP=9.87D-02              OVMax= 1.58D-01

 Cycle   2  Pass 1  IDiag  1:
 E= -911.992697164242     Delta-E=       -0.157686025011 Rises=F Damp=T
 DIIS: error= 7.45D-03 at cycle   2 NSaved=   2.
 NSaved= 2 IEnMin= 2 EnMin= -911.992697164242     IErMin= 2 ErrMin= 7.45D-03
 ErrMax= 7.45D-03  0.00D+00 EMaxC= 1.00D-01 BMatC= 3.05D-02 BMatP= 3.39D-01
 IDIUse=3 WtCom= 9.26D-01 WtEn= 7.45D-02
 Coeff-Com: -0.659D-01 0.107D+01
 Coeff-En:   0.000D+00 0.100D+01
 Coeff:     -0.610D-01 0.106D+01
 Gap=     0.163 Goal=   None    Shift=    0.000
 RMSDP=1.37D-03 MaxDP=7.37D-02 DE=-1.58D-01 OVMax= 1.27D-01

 Cycle   3  Pass 1  IDiag  1:
 E= -912.136519878082     Delta-E=       -0.143822713840 Rises=F Damp=F
 DIIS: error= 8.39D-03 at cycle   3 NSaved=   3.
 NSaved= 3 IEnMin= 3 EnMin= -912.136519878082     IErMin= 2 ErrMin= 7.45D-03
 ErrMax= 8.39D-03  0.00D+00 EMaxC= 1.00D-01 BMatC= 1.92D-02 BMatP= 3.05D-02
 IDIUse=3 WtCom= 9.16D-01 WtEn= 8.39D-02
 Coeff-Com: -0.105D+00 0.501D+00 0.604D+00
 Coeff-En:   0.000D+00 0.000D+00 0.100D+01
 Coeff:     -0.966D-01 0.459D+00 0.638D+00
 Gap=     0.145 Goal=   None    Shift=    0.000
 RMSDP=5.70D-04 MaxDP=2.77D-02 DE=-1.44D-01 OVMax= 5.81D-02

 Cycle   4  Pass 1  IDiag  1:
 E= -912.152361330425     Delta-E=       -0.015841452343 Rises=F Damp=F
 DIIS: error= 4.37D-03 at cycle   4 NSaved=   4.
 NSaved= 4 IEnMin= 4 EnMin= -912.152361330425     IErMin= 4 ErrMin= 4.37D-03
 ErrMax= 4.37D-03  0.00D+00 EMaxC= 1.00D-01 BMatC= 3.87D-03 BMatP= 1.92D-02
 IDIUse=3 WtCom= 9.56D-01 WtEn= 4.37D-02
 Coeff-Com: -0.333D-01 0.955D-01 0.344D+00 0.594D+00
 Coeff-En:   0.000D+00 0.000D+00 0.176D+00 0.824D+00
 Coeff:     -0.319D-01 0.914D-01 0.337D+00 0.604D+00
 Gap=     0.149 Goal=   None    Shift=    0.000
 RMSDP=2.00D-04 MaxDP=9.25D-03 DE=-1.58D-02 OVMax= 2.17D-02

 Cycle   5  Pass 1  IDiag  1:
 E= -912.156341329499     Delta-E=       -0.003979999074 Rises=F Damp=F
 DIIS: error= 4.06D-04 at cycle   5 NSaved=   5.
 NSaved= 5 IEnMin= 5 EnMin= -912.156341329499     IErMin= 5 ErrMin= 4.06D-04
 ErrMax= 4.06D-04  0.00D+00 EMaxC= 1.00D-01 BMatC= 1.15D-04 BMatP= 3.87D-03
 IDIUse=3 WtCom= 9.96D-01 WtEn= 4.06D-03
 Coeff-Com: -0.730D-02 0.113D-01 0.104D+00 0.252D+00 0.640D+00
 Coeff-En:   0.000D+00 0.000D+00 0.000D+00 0.000D+00 0.100D+01
 Coeff:     -0.727D-02 0.112D-01 0.103D+00 0.251D+00 0.641D+00
 Gap=     0.149 Goal=   None    Shift=    0.000
 RMSDP=3.50D-05 MaxDP=1.91D-03 DE=-3.98D-03 OVMax= 3.63D-03

 Cycle   6  Pass 1  IDiag  1:
 E= -912.156448372957     Delta-E=       -0.000107043458 Rises=F Damp=F
 DIIS: error= 9.80D-05 at cycle   6 NSaved=   6.
 NSaved= 6 IEnMin= 6 EnMin= -912.156448372957     IErMin= 6 ErrMin= 9.80D-05
 ErrMax= 9.80D-05  0.00D+00 EMaxC= 1.00D-01 BMatC= 8.07D-06 BMatP= 1.15D-04
 IDIUse=1 WtCom= 1.00D+00 WtEn= 0.00D+00
 Coeff-Com: -0.103D-02-0.923D-03 0.213D-01 0.660D-01 0.271D+00 0.643D+00
 Coeff:     -0.103D-02-0.923D-03 0.213D-01 0.660D-01 0.271D+00 0.643D+00
 Gap=     0.149 Goal=   None    Shift=    0.000
 RMSDP=9.59D-06 MaxDP=3.31D-04 DE=-1.07D-04 OVMax= 9.01D-04

 Cycle   7  Pass 1  IDiag  1:
 E= -912.156456545298     Delta-E=       -0.000008172341 Rises=F Damp=F
 DIIS: error= 4.92D-05 at cycle   7 NSaved=   7.
 NSaved= 7 IEnMin= 7 EnMin= -912.156456545298     IErMin= 7 ErrMin= 4.92D-05
 ErrMax= 4.92D-05  0.00D+00 EMaxC= 1.00D-01 BMatC= 7.32D-07 BMatP= 8.07D-06
 IDIUse=1 WtCom= 1.00D+00 WtEn= 0.00D+00
 Coeff-Com:  0.381D-03-0.165D-02-0.240D-02-0.363D-03 0.453D-01 0.237D+00
 Coeff-Com:  0.722D+00
 Coeff:      0.381D-03-0.165D-02-0.240D-02-0.363D-03 0.453D-01 0.237D+00
 Coeff:      0.722D+00
 Gap=     0.149 Goal=   None    Shift=    0.000
 RMSDP=4.05D-06 MaxDP=1.72D-04 DE=-8.17D-06 OVMax= 4.72D-04

 Cycle   8  Pass 1  IDiag  1:
 E= -912.156457395706     Delta-E=       -0.000000850408 Rises=F Damp=F
 DIIS: error= 2.82D-05 at cycle   8 NSaved=   8.
 NSaved= 8 IEnMin= 8 EnMin= -912.156457395706     IErMin= 8 ErrMin= 2.82D-05
 ErrMax= 2.82D-05  0.00D+00 EMaxC= 1.00D-01 BMatC= 2.08D-07 BMatP= 7.32D-07
 IDIUse=1 WtCom= 1.00D+00 WtEn= 0.00D+00
 Coeff-Com:  0.453D-03-0.730D-03-0.576D-02-0.145D-01-0.325D-01-0.216D-01
 Coeff-Com:  0.372D+00 0.702D+00
 Coeff:      0.453D-03-0.730D-03-0.576D-02-0.145D-01-0.325D-01-0.216D-01
 Coeff:      0.372D+00 0.702D+00
 Gap=     0.149 Goal=   None    Shift=    0.000
 RMSDP=1.96D-06 MaxDP=8.96D-05 DE=-8.50D-07 OVMax= 2.39D-04

 Cycle   9  Pass 1  IDiag  1:
 E= -912.156457672702     Delta-E=       -0.000000276996 Rises=F Damp=F
 DIIS: error= 4.51D-06 at cycle   9 NSaved=   9.
 NSaved= 9 IEnMin= 9 EnMin= -912.156457672702     IErMin= 9 ErrMin= 4.51D-06
 ErrMax= 4.51D-06  0.00D+00 EMaxC= 1.00D-01 BMatC= 7.93D-09 BMatP= 2.08D-07
 IDIUse=1 WtCom= 1.00D+00 WtEn= 0.00D+00
 Coeff-Com:  0.100D-03-0.890D-04-0.135D-02-0.396D-02-0.110D-01-0.220D-01
 Coeff-Com:  0.612D-01 0.193D+00 0.785D+00
 Coeff:      0.100D-03-0.890D-04-0.135D-02-0.396D-02-0.110D-01-0.220D-01
 Coeff:      0.612D-01 0.193D+00 0.785D+00
 Gap=     0.149 Goal=   None    Shift=    0.000
 RMSDP=5.04D-07 MaxDP=1.70D-05 DE=-2.77D-07 OVMax= 8.18D-05

 Cycle  10  Pass 1  IDiag  1:
 E= -912.156457687883     Delta-E=       -0.000000015181 Rises=F Damp=F
 DIIS: error= 2.21D-06 at cycle  10 NSaved=  10.
 NSaved=10 IEnMin=10 EnMin= -912.156457687883     IErMin=10 ErrMin= 2.21D-06
 ErrMax= 2.21D-06  0.00D+00 EMaxC= 1.00D-01 BMatC= 2.28D-09 BMatP= 7.93D-09
 IDIUse=1 WtCom= 1.00D+00 WtEn= 0.00D+00
 Coeff-Com: -0.298D-04 0.792D-04 0.351D-03 0.570D-03 0.365D-03-0.744D-02
 Coeff-Com: -0.351D-01-0.451D-01 0.328D+00 0.758D+00
 Coeff:     -0.298D-04 0.792D-04 0.351D-03 0.570D-03 0.365D-03-0.744D-02
 Coeff:     -0.351D-01-0.451D-01 0.328D+00 0.758D+00
 Gap=     0.149 Goal=   None    Shift=    0.000
 RMSDP=2.61D-07 MaxDP=8.66D-06 DE=-1.52D-08 OVMax= 3.85D-05

 Cycle  11  Pass 1  IDiag  1:
 E= -912.156457691606     Delta-E=       -0.000000003723 Rises=F Damp=F
 DIIS: error= 5.65D-07 at cycle  11 NSaved=  11.
 NSaved=11 IEnMin=11 EnMin= -912.156457691606     IErMin=11 ErrMin= 5.65D-07
 ErrMax= 5.65D-07  0.00D+00 EMaxC= 1.00D-01 BMatC= 2.07D-10 BMatP= 2.28D-09
 IDIUse=1 WtCom= 1.00D+00 WtEn= 0.00D+00
 Coeff-Com: -0.242D-04 0.378D-04 0.313D-03 0.756D-03 0.177D-02 0.521D-03
 Coeff-Com: -0.191D-01-0.475D-01 0.664D-02 0.260D+00 0.797D+00
 Coeff:     -0.242D-04 0.378D-04 0.313D-03 0.756D-03 0.177D-02 0.521D-03
 Coeff:     -0.191D-01-0.475D-01 0.664D-02 0.260D+00 0.797D+00
 Gap=     0.149 Goal=   None    Shift=    0.000
 RMSDP=9.75D-08 MaxDP=2.81D-06 DE=-3.72D-09 OVMax= 1.80D-05

 Cycle  12  Pass 1  IDiag  1:
 E= -912.156457691996     Delta-E=       -0.000000000390 Rises=F Damp=F
 DIIS: error= 2.01D-07 at cycle  12 NSaved=  12.
 NSaved=12 IEnMin=12 EnMin= -912.156457691996     IErMin=12 ErrMin= 2.01D-07
 ErrMax= 2.01D-07  0.00D+00 EMaxC= 1.00D-01 BMatC= 1.71D-11 BMatP= 2.07D-10
 IDIUse=1 WtCom= 1.00D+00 WtEn= 0.00D+00
 Coeff-Com: -0.287D-05 0.208D-05 0.432D-04 0.117D-03 0.394D-03 0.857D-03
 Coeff-Com: -0.512D-04-0.724D-02-0.258D-01-0.254D-02 0.170D+00 0.864D+00
 Coeff:     -0.287D-05 0.208D-05 0.432D-04 0.117D-03 0.394D-03 0.857D-03
 Coeff:     -0.512D-04-0.724D-02-0.258D-01-0.254D-02 0.170D+00 0.864D+00
 Gap=     0.149 Goal=   None    Shift=    0.000
 RMSDP=2.92D-08 MaxDP=7.54D-07 DE=-3.90D-10 OVMax= 5.69D-06

 Cycle  13  Pass 1  IDiag  1:
 E= -912.156457692071     Delta-E=       -0.000000000075 Rises=F Damp=F
 DIIS: error= 1.26D-07 at cycle  13 NSaved=  13.
 NSaved=13 IEnMin=13 EnMin= -912.156457692071     IErMin=13 ErrMin= 1.26D-07
 ErrMax= 1.26D-07  0.00D+00 EMaxC= 1.00D-01 BMatC= 4.21D-12 BMatP= 1.71D-11
 IDIUse=1 WtCom= 1.00D+00 WtEn= 0.00D+00
 Coeff-Com:  0.255D-05-0.494D-05-0.297D-04-0.715D-04-0.107D-03 0.259D-03
 Coeff-Com:  0.285D-02 0.347D-02-0.130D-01-0.417D-01-0.571D-01 0.346D+00
 Coeff-Com:  0.759D+00
 Coeff:      0.255D-05-0.494D-05-0.297D-04-0.715D-04-0.107D-03 0.259D-03
 Coeff:      0.285D-02 0.347D-02-0.130D-01-0.417D-01-0.571D-01 0.346D+00
 Coeff:      0.759D+00
 Gap=     0.149 Goal=   None    Shift=    0.000
 RMSDP=1.40D-08 MaxDP=5.38D-07 DE=-7.50D-11 OVMax= 3.00D-06

 Cycle  14  Pass 1  IDiag  1:
 E= -912.156457692122     Delta-E=       -0.000000000050 Rises=F Damp=F
 DIIS: error= 4.54D-08 at cycle  14 NSaved=  14.
 NSaved=14 IEnMin=14 EnMin= -912.156457692122     IErMin=14 ErrMin= 4.54D-08
 ErrMax= 4.54D-08  0.00D+00 EMaxC= 1.00D-01 BMatC= 6.16D-13 BMatP= 4.21D-12
 IDIUse=1 WtCom= 1.00D+00 WtEn= 0.00D+00
 Coeff-Com:  0.927D-06-0.139D-05-0.116D-04-0.327D-04-0.672D-04-0.519D-04
 Coeff-Com:  0.687D-03 0.146D-02 0.127D-02-0.760D-02-0.361D-01-0.587D-01
 Coeff-Com:  0.250D+00 0.849D+00
 Coeff:      0.927D-06-0.139D-05-0.116D-04-0.327D-04-0.672D-04-0.519D-04
 Coeff:      0.687D-03 0.146D-02 0.127D-02-0.760D-02-0.361D-01-0.587D-01
 Coeff:      0.250D+00 0.849D+00
 Gap=     0.149 Goal=   None    Shift=    0.000
 RMSDP=4.83D-09 MaxDP=1.72D-07 DE=-5.05D-11 OVMax= 9.35D-07

 Error on total polarization charges =  0.00680
 SCF Done:  E(RM062X) =  -912.156457692     A.U. after   14 cycles
            NFock= 14  Conv=0.48D-08     -V/T= 2.0062
 KE= 9.064963236945D+02 PE=-5.076107119510D+03 EE= 1.784220359318D+03
 Leave Link  502 at Sun Sep 30 08:48:05 2018, MaxMem= 12079595520 cpu:      1738.5
 (Enter /scratch/prg/gaussian/bin/g09/l801.exe)
 DoSCS=F DFT=T ScalE2(SS,OS)=  1.000000  1.000000
 ExpMin= 9.54D-02 ExpMax= 1.47D+04 ExpMxC= 5.03D+02 IAcc=3 IRadAn=         5 AccDes= 0.00D+00
 HarFok:  IExCor=  205 AccDes= 0.00D+00 IRadAn=         5 IDoV=-2 UseB2=F ITyADJ=14
 ICtDFT= 12500011 ScaDFX=  1.000000  1.000000  1.000000  1.000000
 Largest valence mixing into a core orbital is  7.93D-05
 Largest core mixing into a valence orbital is  4.79D-05
 Range of M.O.s used for correlation:    21   335
 NBasis=   335 NAE=    69 NBE=    69 NFC=    20 NFV=     0
 NROrb=    315 NOA=    49 NOB=    49 NVA=   266 NVB=   266

 **** Warning!!: The largest alpha MO coefficient is  0.13402038D+02

 Leave Link  801 at Sun Sep 30 08:49:52 2018, MaxMem= 12079595520 cpu:       529.0
 (Enter /scratch/prg/gaussian/bin/g09/linda-exe/l914.exel)
 RHF ground state
 MDV= 12079595520 DFT=T DoStab=F Mixed=T DoRPA=T DoScal=F NonHer=T
 NEqPCM:  Using equilibrium solvation (IEInf=0, Eps=   2.3741, EpsInf=   2.2383)
 Keep R1, R2, and R3 ints in memory in canonical form, NReq=4923259439.
 FoFCou: FMM=F IPFlag=           0 FMFlag=           0 FMFlg1=           0
         NFxFlg=           0 DoJE=F BraDBF=F KetDBF=F FulRan=T
         wScrn=  0.000000 ICntrl=     600 IOpCl=  0 I1Cent=           0 NGrid=           0
         NMat0=    1 NMatS0=  56280 NMatT0=    0 NMatD0=    1 NMtDS0=    0 NMtDT0=    0
 Symmetry not used in FoFCou.
 Making orbital integer symmetry assigments:
    24 initial guesses have been made.
 Convergence on wavefunction:    0.000001000000000
 Davidson Disk Diagonalization:  ConvIn= 1.00D-06 SkipCon=T Conv= 1.00D-06.
 Max sub-space:   200 roots to seek:    24 dimension of matrix:        26068
 Iteration     1 Dimension    24 NMult     0 NNew     24
 CISAX will form    24 AO SS matrices at one time.
 NMat=    24 NSing=    24 JSym2X= 0.
 New state      2 was old state      3
 New state      3 was old state      2
 Excitation Energies [eV] at current iteration:
 Root      1 :     2.466380442342621
 Root      2 :     3.518232672613027
 Root      3 :     3.687197411051409
 Root      4 :     3.949077084703372
 Root      5 :     4.237195484873297
 Root      6 :     5.388429662542030
 Root      7 :     5.560102008504212
 Root      8 :     5.706280097240946
 Root      9 :     5.775335949820336
 Root     10 :     6.057041235708408
 Root     11 :     6.171542840683891
 Root     12 :     6.457277608783586
 Root     13 :     6.805869244776925
 Root     14 :     6.854129482237631
 Root     15 :     6.944231516234553
 Root     16 :     6.980992212048188
 Root     17 :     7.088560907215415
 Root     18 :     7.305798002899923
 Root     19 :     7.359487436590485
 Root     20 :     7.374151792885331
 Root     21 :     7.573198685044292
 Root     22 :     7.672144805318340
 Root     23 :     7.879951330466207
 Root     24 :     8.303033006858948
 Iteration     2 Dimension    36 NMult    24 NNew     12
 CISAX will form    12 AO SS matrices at one time.
 NMat=    12 NSing=    12 JSym2X= 0.
 Root      1 not converged, maximum delta is    0.048762867984711
 New state      2 was old state      3
 Root      2 not converged, maximum delta is    0.065470578953556
 New state      3 was old state      2
 Root      3 not converged, maximum delta is    0.062734754301714
 Root      4 not converged, maximum delta is    0.046099700122568
 Root      5 not converged, maximum delta is    0.059498567908107
 Root      6 not converged, maximum delta is    0.081810354453376
 Excitation Energies [eV] at current iteration:
 Root      1 :     2.022377928236729   Change is   -0.444002514105892
 Root      2 :     3.237429178142177   Change is   -0.449768232909232
 Root      3 :     3.261500385431820   Change is   -0.256732287181207
 Root      4 :     3.677938634616395   Change is   -0.271138450086977
 Root      5 :     4.010366989012870   Change is   -0.226828495860427
 Root      6 :     5.346147956447615   Change is   -0.042281706094415
 Iteration     3 Dimension    48 NMult    36 NNew     12
 CISAX will form    12 AO SS matrices at one time.
 NMat=    12 NSing=    12 JSym2X= 0.
 Root      1 not converged, maximum delta is    0.013241770115623
 Root      2 not converged, maximum delta is    0.021951539635851
 Root      3 not converged, maximum delta is    0.021003464430156
 Root      4 not converged, maximum delta is    0.007751822893828
 Root      5 not converged, maximum delta is    0.024426650307114
 Root      6 not converged, maximum delta is    0.215936651607677
 Excitation Energies [eV] at current iteration:
 Root      1 :     1.997300850294099   Change is   -0.025077077942631
 Root      2 :     3.214039212862080   Change is   -0.023389965280098
 Root      3 :     3.252446253962893   Change is   -0.009054131468927
 Root      4 :     3.668742282580157   Change is   -0.009196352036238
 Root      5 :     3.995485516491014   Change is   -0.014881472521856
 Root      6 :     5.326199847736548   Change is   -0.019948108711067
 Iteration     4 Dimension    60 NMult    48 NNew     12
 CISAX will form    12 AO SS matrices at one time.
 NMat=    12 NSing=    12 JSym2X= 0.
 Root      1 not converged, maximum delta is    0.003829047275743
 Root      2 not converged, maximum delta is    0.005120831806051
 Root      3 not converged, maximum delta is    0.002622030564396
 Root      4 not converged, maximum delta is    0.002728411010147
 Root      5 not converged, maximum delta is    0.005770447932696
 Root      6 not converged, maximum delta is    0.252868955121022
 Excitation Energies [eV] at current iteration:
 Root      1 :     1.996174635653374   Change is   -0.001126214640724
 Root      2 :     3.211672161997688   Change is   -0.002367050864391
 Root      3 :     3.251614969369474   Change is   -0.000831284593419
 Root      4 :     3.667474955814290   Change is   -0.001267326765868
 Root      5 :     3.993459243643767   Change is   -0.002026272847247
 Root      6 :     5.294436591613450   Change is   -0.031763256123099
 Iteration     5 Dimension    72 NMult    60 NNew     12
 CISAX will form    12 AO SS matrices at one time.
 NMat=    12 NSing=    12 JSym2X= 0.
 Root      1 not converged, maximum delta is    0.000563676682004
 Root      2 not converged, maximum delta is    0.000571128322053
 Root      3 not converged, maximum delta is    0.000678778684954
 Root      4 not converged, maximum delta is    0.001241135650055
 Root      5 not converged, maximum delta is    0.000518601261156
 Root      6 not converged, maximum delta is    0.083506599434008
 Excitation Energies [eV] at current iteration:
 Root      1 :     1.996100362034935   Change is   -0.000074273618439
 Root      2 :     3.211537743943837   Change is   -0.000134418053852
 Root      3 :     3.251562464709085   Change is   -0.000052504660389
 Root      4 :     3.667377948196871   Change is   -0.000097007617419
 Root      5 :     3.993397342307191   Change is   -0.000061901336576
 Root      6 :     5.282274934706239   Change is   -0.012161656907211
 Iteration     6 Dimension    84 NMult    72 NNew     12
 CISAX will form    12 AO SS matrices at one time.
 NMat=    12 NSing=    12 JSym2X= 0.
 Root      1 not converged, maximum delta is    0.000070640384307
 Root      2 not converged, maximum delta is    0.000128569762317
 Root      3 not converged, maximum delta is    0.000131730482734
 Root      4 not converged, maximum delta is    0.000196388824373
 Root      5 not converged, maximum delta is    0.000040668281527
 Root      6 not converged, maximum delta is    0.008409049431450
 Excitation Energies [eV] at current iteration:
 Root      1 :     1.996096840351091   Change is   -0.000003521683844
 Root      2 :     3.211530476776138   Change is   -0.000007267167699
 Root      3 :     3.251559581496726   Change is   -0.000002883212359
 Root      4 :     3.667372527854764   Change is   -0.000005420342107
 Root      5 :     3.993395805843541   Change is   -0.000001536463650
 Root      6 :     5.281203496650186   Change is   -0.001071438056052
 Iteration     7 Dimension    96 NMult    84 NNew     12
 CISAX will form    12 AO SS matrices at one time.
 NMat=    12 NSing=    12 JSym2X= 0.
 Root      1 not converged, maximum delta is    0.000019393614655
 Root      2 not converged, maximum delta is    0.000027501104005
 Root      3 not converged, maximum delta is    0.000019991014927
 Root      4 not converged, maximum delta is    0.000036392526615
 Root      5 not converged, maximum delta is    0.000012311103623
 Root      6 not converged, maximum delta is    0.006770496038373
 Excitation Energies [eV] at current iteration:
 Root      1 :     1.996096660724612   Change is   -0.000000179626479
 Root      2 :     3.211530022112358   Change is   -0.000000454663780
 Root      3 :     3.251559470372538   Change is   -0.000000111124187
 Root      4 :     3.667372178573689   Change is   -0.000000349281074
 Root      5 :     3.993395757007280   Change is   -0.000000048836261
 Root      6 :     5.281080526578211   Change is   -0.000122970071976
 Iteration     8 Dimension   108 NMult    96 NNew     12
 CISAX will form    12 AO SS matrices at one time.
 NMat=    12 NSing=    12 JSym2X= 0.
 Root      1 not converged, maximum delta is    0.000003326573307
 Root      2 not converged, maximum delta is    0.000004960465286
 Root      3 not converged, maximum delta is    0.000003029736379
 Root      4 not converged, maximum delta is    0.000005859456652
 Root      5 not converged, maximum delta is    0.000003255062081
 Root      6 not converged, maximum delta is    0.005048165886012
 Excitation Energies [eV] at current iteration:
 Root      1 :     1.996096655076085   Change is   -0.000000005648527
 Root      2 :     3.211530004285897   Change is   -0.000000017826461
 Root      3 :     3.251559465939987   Change is   -0.000000004432551
 Root      4 :     3.667372158371546   Change is   -0.000000020202143
 Root      5 :     3.993395754754116   Change is   -0.000000002253164
 Root      6 :     5.281059776874852   Change is   -0.000020749703359
 Iteration     9 Dimension   120 NMult   108 NNew     12
 CISAX will form    12 AO SS matrices at one time.
 NMat=    12 NSing=    12 JSym2X= 0.
 Root      1 has converged.
 Root      2 not converged, maximum delta is    0.000001394220036
 Root      3 has converged.
 Root      4 not converged, maximum delta is    0.000001635234089
 Root      5 has converged.
 Root      6 not converged, maximum delta is    0.003278559379358
 Excitation Energies [eV] at current iteration:
 Root      1 :     1.996096654947631   Change is   -0.000000000128453
 Root      2 :     3.211530003275124   Change is   -0.000000001010773
 Root      3 :     3.251559465805358   Change is   -0.000000000134629
 Root      4 :     3.667372156440796   Change is   -0.000000001930750
 Root      5 :     3.993395754641305   Change is   -0.000000000112811
 Root      6 :     5.281054947271866   Change is   -0.000004829602986
 Iteration    10 Dimension   126 NMult   120 NNew      6
 CISAX will form     6 AO SS matrices at one time.
 NMat=     6 NSing=     6 JSym2X= 0.
 Root      1 has converged.
 Root      2 has converged.
 Root      3 has converged.
 Root      4 has converged.
 Root      5 has converged.
 Root      6 not converged, maximum delta is    0.001064185209191
 Excitation Energies [eV] at current iteration:
 Root      1 :     1.996096654947508   Change is   -0.000000000000123
 Root      2 :     3.211530003246736   Change is   -0.000000000028388
 Root      3 :     3.251559465801793   Change is   -0.000000000003565
 Root      4 :     3.667372156379824   Change is   -0.000000000060971
 Root      5 :     3.993395754640503   Change is   -0.000000000000803
 Root      6 :     5.281054094425556   Change is   -0.000000852846309
 Iteration    11 Dimension   128 NMult   126 NNew      2
 CISAX will form     2 AO SS matrices at one time.
 NMat=     2 NSing=     2 JSym2X= 0.
 Root      1 has converged.
 Root      2 has converged.
 Root      3 has converged.
 Root      4 has converged.
 Root      5 has converged.
 Root      6 not converged, maximum delta is    0.000164188614344
 Excitation Energies [eV] at current iteration:
 Root      1 :     1.996096654946643   Change is   -0.000000000000865
 Root      2 :     3.211530003247044   Change is    0.000000000000307
 Root      3 :     3.251559465801262   Change is   -0.000000000000531
 Root      4 :     3.667372156379847   Change is    0.000000000000023
 Root      5 :     3.993395754640400   Change is   -0.000000000000103
 Root      6 :     5.281053996085741   Change is   -0.000000098339815
 Iteration    12 Dimension   130 NMult   128 NNew      2
 CISAX will form     2 AO SS matrices at one time.
 NMat=     2 NSing=     2 JSym2X= 0.
 Root      1 has converged.
 Root      2 has converged.
 Root      3 has converged.
 Root      4 has converged.
 Root      5 has converged.
 Root      6 not converged, maximum delta is    0.000031674419086
 Excitation Energies [eV] at current iteration:
 Root      1 :     1.996096654947343   Change is    0.000000000000700
 Root      2 :     3.211530003246839   Change is   -0.000000000000205
 Root      3 :     3.251559465802249   Change is    0.000000000000986
 Root      4 :     3.667372156379466   Change is   -0.000000000000381
 Root      5 :     3.993395754640564   Change is    0.000000000000165
 Root      6 :     5.281053986736861   Change is   -0.000000009348880
 Iteration    13 Dimension   132 NMult   130 NNew      2
 CISAX will form     2 AO SS matrices at one time.
 NMat=     2 NSing=     2 JSym2X= 0.
 Root      1 has converged.
 Root      2 has converged.
 Root      3 has converged.
 Root      4 has converged.
 Root      5 has converged.
 Root      6 not converged, maximum delta is    0.000012397658333
 Excitation Energies [eV] at current iteration:
 Root      1 :     1.996096654947714   Change is    0.000000000000370
 Root      2 :     3.211530003246583   Change is   -0.000000000000256
 Root      3 :     3.251559465802223   Change is   -0.000000000000025
 Root      4 :     3.667372156379241   Change is   -0.000000000000224
 Root      5 :     3.993395754640647   Change is    0.000000000000082
 Root      6 :     5.281053985735251   Change is   -0.000000001001610
 Iteration    14 Dimension   134 NMult   132 NNew      2
 CISAX will form     2 AO SS matrices at one time.
 NMat=     2 NSing=     2 JSym2X= 0.
 Root      1 has converged.
 Root      2 has converged.
 Root      3 has converged.
 Root      4 has converged.
 Root      5 has converged.
 Root      6 not converged, maximum delta is    0.000005574434804
 Excitation Energies [eV] at current iteration:
 Root      1 :     1.996096654947878   Change is    0.000000000000165
 Root      2 :     3.211530003245969   Change is   -0.000000000000614
 Root      3 :     3.251559465802173   Change is   -0.000000000000051
 Root      4 :     3.667372156379152   Change is   -0.000000000000089
 Root      5 :     3.993395754640338   Change is   -0.000000000000309
 Root      6 :     5.281053985598249   Change is   -0.000000000137001
 Iteration    15 Dimension   136 NMult   134 NNew      2
 CISAX will form     2 AO SS matrices at one time.
 NMat=     2 NSing=     2 JSym2X= 0.
 Root      1 has converged.
 Root      2 has converged.
 Root      3 has converged.
 Root      4 has converged.
 Root      5 has converged.
 Root      6 not converged, maximum delta is    0.000001371760068
 Excitation Energies [eV] at current iteration:
 Root      1 :     1.996096654946808   Change is   -0.000000000001071
 Root      2 :     3.211530003245431   Change is   -0.000000000000537
 Root      3 :     3.251559465801819   Change is   -0.000000000000354
 Root      4 :     3.667372156379107   Change is   -0.000000000000045
 Root      5 :     3.993395754640420   Change is    0.000000000000082
 Root      6 :     5.281053985582963   Change is   -0.000000000015287
 Iteration    16 Dimension   138 NMult   136 NNew      2
 CISAX will form     2 AO SS matrices at one time.
 NMat=     2 NSing=     2 JSym2X= 0.
 Root      1 has converged.
 Root      2 has converged.
 Root      3 has converged.
 Root      4 has converged.
 Root      5 has converged.
 Root      6 has converged.
 Excitation Energies [eV] at current iteration:
 Root      1 :     1.996096654946725   Change is   -0.000000000000082
 Root      2 :     3.211530003246404   Change is    0.000000000000973
 Root      3 :     3.251559465801970   Change is    0.000000000000151
 Root      4 :     3.667372156378748   Change is   -0.000000000000359
 Root      5 :     3.993395754640317   Change is   -0.000000000000103
 Root      6 :     5.281053985581438   Change is   -0.000000000001525
 Convergence achieved on expansion vectors.
 ***********************************************************************
 Excited states from <AA,BB:AA,BB> singles matrix:
 ***********************************************************************
 
 1PDM for each excited state written to RWF  633
 Ground to excited state transition densities written to RWF  633
 Ground to excited state transition electric dipole moments (Au):
       state          X           Y           Z        Dip. S.      Osc.
         1        -1.3152      0.3033     -1.7445      4.8652      0.2379
         2         2.1236     -0.4366     -1.7159      7.6449      0.6015
         3         0.4722     -0.1058      0.3984      0.3928      0.0313
         4         0.2836      0.2384     -0.1808      0.1699      0.0153
         5         0.3362     -0.0676      0.4493      0.3195      0.0313
         6        -0.6127      0.1522      0.5223      0.6714      0.0869
 Ground to excited state transition velocity dipole moments (Au):
       state          X           Y           Z        Dip. S.      Osc.
         1         0.0981     -0.0227      0.1302      0.0271      0.2463
         2        -0.2519      0.0550      0.2042      0.1082      0.6111
         3        -0.0582      0.0132     -0.0499      0.0061      0.0338
         4        -0.0408     -0.0321      0.0265      0.0034      0.0168
         5        -0.0539      0.0109     -0.0719      0.0082      0.0373
         6         0.1204     -0.0299     -0.1025      0.0259      0.0889
 Ground to excited state transition magnetic dipole moments (Au):
       state          X           Y           Z
         1        -0.1145      1.2905      0.3144
         2        -0.1818     -0.0047     -0.2738
         3        -0.2860      0.5521      0.2891
         4        -0.1247      0.0377     -0.1706
         5        -0.1518     -1.3917     -0.1055
         6         0.1220     -0.0581      0.1474
 Ground to excited state transition velocity quadrupole moments (Au):
       state          XX          YY          ZZ          XY          XZ          YZ
         1        -0.3270      0.0395      0.3026     -0.0482     -0.1086     -0.1402
         2         2.6071     -0.0621      1.3287     -0.2964     -2.6089      0.3382
         3         0.5013     -0.0410     -0.2721      0.0257     -0.0129      0.1560
         4         0.1800      0.0353      0.0812      0.1536     -0.1118     -0.1133
         5         0.8311      0.0161     -0.8630     -0.1214      0.2319      0.0170
         6        -1.9151      0.0085     -1.1939      0.2948      1.5347     -0.2206
 <0|del|b> * <b|rxdel|0> + <0|del|b> * <b|delr+rdel|0>
 Rotatory Strengths (R) in cgs (10**-40 erg-esu-cm/Gauss)
       state          XX          YY          ZZ    R(velocity)    E-M Angle
         1        14.3221    107.1948   -116.8501      1.5556       89.87
         2        80.5067   -104.1657    -38.5866    -20.7486       95.51
         3       -24.4427    -16.5241     97.2520     18.7617       79.74
         4       -13.7696      2.9572      7.4638     -1.1162       92.92
         5        -3.3992     14.7654     -8.5746      0.9305       89.74
         6         4.0961      5.9015     -5.2066      1.5970       87.66
 1/2[<0|r|b>*<b|rxdel|0> + (<0|rxdel|b>*<b|r|0>)*]
 Rotatory Strengths (R) in cgs (10**-40 erg-esu-cm/Gauss)
       state          XX          YY          ZZ     R(length)
         1      -106.4519   -276.7903    387.8780      1.5453
         2       272.9683     -1.4580   -332.2287    -20.2395
         3        95.5051     41.2976    -81.4381     18.4549
         4        25.0147     -6.3492    -21.8109     -1.0485
         5        36.0899    -66.5072     33.5106      1.0311
         6        52.8744      6.2589    -54.4452      1.5627
  1/2[<0|del|b>*<b|r|0> + (<0|r|b>*<b|del|0>)*] (Au)
       state          X           Y           Z        Dip. S.   Osc.(frdel)
         1        -0.1290     -0.0069     -0.2272      0.3631      0.2421
         2        -0.5349     -0.0240     -0.3504      0.9094      0.6063
         3        -0.0275     -0.0014     -0.0199      0.0488      0.0325
         4        -0.0116     -0.0077     -0.0048      0.0240      0.0160
         5        -0.0181     -0.0007     -0.0323      0.0512      0.0341
         6        -0.0738     -0.0045     -0.0535      0.1318      0.0879

 Excitation energies and oscillator strengths:
 
 Excited state symmetry could not be determined.
 Excited State   1:      Singlet-?Sym    1.9961 eV  621.13 nm  f=0.2379  <S**2>=0.000
      69 -> 70         0.70183
 This state for optimization and/or second-order correction.
 Total Energy, E(TD-HF/TD-KS) =  -912.083102487    
 Copying the excited state density for this state as the 1-particle RhoCI density.
 
 Excited state symmetry could not be determined.
 Excited State   2:      Singlet-?Sym    3.2115 eV  386.06 nm  f=0.6015  <S**2>=0.000
      68 -> 70         0.69799
 
 Excited state symmetry could not be determined.
 Excited State   3:      Singlet-?Sym    3.2516 eV  381.31 nm  f=0.0313  <S**2>=0.000
      67 -> 70         0.70073
 
 Excited state symmetry could not be determined.
 Excited State   4:      Singlet-?Sym    3.6674 eV  338.07 nm  f=0.0153  <S**2>=0.000
      66 -> 70         0.69951
 
 Excited state symmetry could not be determined.
 Excited State   5:      Singlet-?Sym    3.9934 eV  310.47 nm  f=0.0313  <S**2>=0.000
      65 -> 70         0.69130
      68 -> 71         0.11309
 
 Excited state symmetry could not be determined.
 Excited State   6:      Singlet-?Sym    5.2811 eV  234.77 nm  f=0.0869  <S**2>=0.000
      64 -> 70         0.64560
      69 -> 71        -0.22849
 SavETr:  write IOETrn=   770 NScale= 10 NData=  16 NLR=1 NState=    6 LETran=     118.
 The selected state is a singlet
 CISAX will form     1 AO SS matrices at one time.
 NMat=     1 NSing=     1 JSym2X= 0.
 GePol: Maximum number of non-zero 1st derivatives   =     218
 CISAX will form     1 AO SS matrices at one time.
 NMat=     1 NSing=     1 JSym2X= 0.
 Leave Link  914 at Sun Sep 30 09:00:31 2018, MaxMem= 12079595520 cpu:      6624.0
 (Enter /scratch/prg/gaussian/bin/g09/linda-exe/l1002.exel)
 Minotr:  Closed shell wavefunction.
          Computing CIS/TD-HF/TD-KS derivatives.
          Using Z-Vector for PSCF gradient.
          Skipping F1 and S1 gradient terms here.
          IDoAtm=1111111111111111111111111111111
 NEqPCM:  Using equilibrium solvation (IEInf=0, Eps=   2.3741, EpsInf=   2.2383)
          Frozen-core window.
          Direct CPHF calculation.
          Differentiating once with respect to electric field.
                with respect to dipole field.
          Differentiating once with respect to nuclear coordinates.
          Requested convergence is 1.0D-10 RMS, and 1.0D-09 maximum.
          NewPWx=F KeepS1=T KeepF1=T KeepIn=T MapXYZ=F SortEE=F KeepMc=T.
          MDV=   12079594891 using IRadAn=       5.
 Using stored XC quadrature information.
 Keep R1 ints in memory in canonical form, NReq=1606309516.
 FoFCou: FMM=F IPFlag=           0 FMFlag=           0 FMFlg1=           0
         NFxFlg=           0 DoJE=F BraDBF=F KetDBF=F FulRan=T
         wScrn=  0.000000 ICntrl=     600 IOpCl=  0 I1Cent=           0 NGrid=           0
         NMat0=    1 NMatS0=  56280 NMatT0=    0 NMatD0=    1 NMtDS0=    0 NMtDT0=    0
 Symmetry not used in FoFCou.
          Solving linear equations separately, MaxMat=       0.
          There are     1 degrees of freedom in the 1st order CPHF.  IDoFFX=0 NUNeed=     1.
 LinEq1:  Iter=  0 NonCon=     1 RMS=6.46D-03 Max=6.02D-01 NDo=     1
 AX will form     1 AO Fock derivatives at one time.
 LinEq1:  Iter=  1 NonCon=     1 RMS=2.72D-03 Max=1.70D-01 NDo=     1
 LinEq1:  Iter=  2 NonCon=     1 RMS=1.77D-03 Max=8.42D-02 NDo=     1
 LinEq1:  Iter=  3 NonCon=     1 RMS=6.03D-04 Max=1.73D-02 NDo=     1
 LinEq1:  Iter=  4 NonCon=     1 RMS=3.68D-04 Max=1.61D-02 NDo=     1
 LinEq1:  Iter=  5 NonCon=     1 RMS=1.95D-04 Max=9.83D-03 NDo=     1
 LinEq1:  Iter=  6 NonCon=     1 RMS=1.04D-04 Max=4.29D-03 NDo=     1
 LinEq1:  Iter=  7 NonCon=     1 RMS=4.87D-05 Max=1.53D-03 NDo=     1
 LinEq1:  Iter=  8 NonCon=     1 RMS=2.19D-05 Max=6.94D-04 NDo=     1
 LinEq1:  Iter=  9 NonCon=     1 RMS=8.38D-06 Max=2.97D-04 NDo=     1
 LinEq1:  Iter= 10 NonCon=     1 RMS=3.99D-06 Max=1.79D-04 NDo=     1
 LinEq1:  Iter= 11 NonCon=     1 RMS=1.75D-06 Max=1.33D-04 NDo=     1
 LinEq1:  Iter= 12 NonCon=     1 RMS=8.37D-07 Max=4.75D-05 NDo=     1
 LinEq1:  Iter= 13 NonCon=     1 RMS=4.72D-07 Max=2.29D-05 NDo=     1
 LinEq1:  Iter= 14 NonCon=     1 RMS=1.90D-07 Max=5.78D-06 NDo=     1
 LinEq1:  Iter= 15 NonCon=     1 RMS=5.56D-08 Max=1.95D-06 NDo=     1
 LinEq1:  Iter= 16 NonCon=     1 RMS=2.10D-08 Max=6.46D-07 NDo=     1
 LinEq1:  Iter= 17 NonCon=     1 RMS=1.09D-08 Max=3.54D-07 NDo=     1
 LinEq1:  Iter= 18 NonCon=     1 RMS=4.69D-09 Max=1.40D-07 NDo=     1
 LinEq1:  Iter= 19 NonCon=     1 RMS=2.38D-09 Max=8.57D-08 NDo=     1
 LinEq1:  Iter= 20 NonCon=     1 RMS=7.21D-10 Max=1.70D-08 NDo=     1
 LinEq1:  Iter= 21 NonCon=     1 RMS=2.60D-10 Max=8.66D-09 NDo=     1
 LinEq1:  Iter= 22 NonCon=     1 RMS=1.18D-10 Max=3.40D-09 NDo=     1
 LinEq1:  Iter= 23 NonCon=     1 RMS=5.02D-11 Max=1.71D-09 NDo=     1
 LinEq1:  Iter= 24 NonCon=     1 RMS=2.91D-11 Max=1.33D-09 NDo=     1
 LinEq1:  Iter= 25 NonCon=     0 RMS=1.12D-11 Max=4.11D-10 NDo=     1
 Linear equations converged to 1.000D-10 1.000D-09 after    25 iterations.
 End of Minotr F.D. properties file   721 does not exist.
 End of Minotr F.D. properties file   722 does not exist.
 End of Minotr F.D. properties file   788 does not exist.
 Leave Link 1002 at Sun Sep 30 09:06:47 2018, MaxMem= 12079595520 cpu:      2551.9
 (Enter /scratch/prg/gaussian/bin/g09/l601.exe)
 Copying SCF densities to generalized density rwf, IOpCl= 0 IROHF=0.

 **********************************************************************

            Population analysis using the SCF density.

 **********************************************************************

 Alpha  occ. eigenvalues --  -25.20948 -25.20112 -14.79440 -14.79424 -10.63699
 Alpha  occ. eigenvalues --  -10.59740 -10.59730 -10.59625 -10.59517 -10.59485
 Alpha  occ. eigenvalues --  -10.58518 -10.58487 -10.58484 -10.57691 -10.57686
 Alpha  occ. eigenvalues --  -10.56629 -10.56608 -10.55135 -10.55113  -7.12557
 Alpha  occ. eigenvalues --   -1.31096  -1.27885  -1.10769  -1.08476  -0.99496
 Alpha  occ. eigenvalues --   -0.93442  -0.89011  -0.87638  -0.86697  -0.85823
 Alpha  occ. eigenvalues --   -0.81755  -0.76794  -0.71360  -0.70346  -0.69334
 Alpha  occ. eigenvalues --   -0.66853  -0.65654  -0.64765  -0.61906  -0.61831
 Alpha  occ. eigenvalues --   -0.59481  -0.58046  -0.56648  -0.54313  -0.54049
 Alpha  occ. eigenvalues --   -0.52542  -0.52296  -0.51336  -0.50889  -0.49643
 Alpha  occ. eigenvalues --   -0.49447  -0.48752  -0.48175  -0.46762  -0.46376
 Alpha  occ. eigenvalues --   -0.46320  -0.45436  -0.44850  -0.44667  -0.44117
 Alpha  occ. eigenvalues --   -0.43325  -0.41721  -0.40743  -0.37732  -0.33260
[...]
 Electronic spatial extent (au):  <R**2>=           8581.5287
 Charge=              0.0000 electrons
 Dipole moment (field-independent basis, Debye):
    X=             -0.4792    Y=             -4.1176    Z=             -0.3755  Tot=              4.1624
 Quadrupole moment (field-independent basis, Debye-Ang):
   XX=            -98.7445   YY=           -123.5088   ZZ=            -94.4209
   XY=             -0.3828   XZ=              9.6812   YZ=             -6.2464
 Traceless Quadrupole moment (field-independent basis, Debye-Ang):
   XX=              6.8135   YY=            -17.9507   ZZ=             11.1372
   XY=             -0.3828   XZ=              9.6812   YZ=             -6.2464
 Octapole moment (field-independent basis, Debye-Ang**2):
  XXX=            651.8675  YYY=            -56.1513  ZZZ=           -508.9212  XYY=            269.4831
  XXY=             -8.1751  XXZ=           -175.6741  XZZ=            216.6833  YZZ=            -32.0878
  YYZ=           -205.7024  XYZ=             -8.2232
 Hexadecapole moment (field-independent basis, Debye-Ang**3):
 XXXX=          -5774.0472 YYYY=           -590.4554 ZZZZ=          -4188.6685 XXXY=             48.7518
 XXXZ=           1522.4529 YYYX=            174.5549 YYYZ=            -15.1270 ZZZX=           1509.6196
 ZZZY=            -47.6673 XXYY=          -1268.0584 XXZZ=          -1634.5288 YYZZ=           -919.1825
 XXYZ=             69.0693 YYXZ=            650.3273 ZZXY=             24.3698
 N-N= 1.473217615553D+03 E-N=-5.076057404226D+03  KE= 9.065858333652D+02

 **********************************************************************

            Population analysis using the CI density.

 **********************************************************************

          Condensed to atoms (all electrons):
               1          2          3          4          5          6
     1  B    3.383621   0.334680  -0.031951  -0.003312   0.003099   0.000178
     2  N    0.334680   6.188451   0.495391  -0.025569  -0.053217   0.003737
     3  C   -0.031951   0.495391   4.775294   0.406188   0.462081  -0.042226
     4  H   -0.003312  -0.025569   0.406188   0.599907  -0.041282  -0.003363
     5  C    0.003099  -0.053217   0.462081  -0.041282   4.798563   0.413017
     6  H    0.000178   0.003737  -0.042226  -0.003363   0.413017   0.640761
     7  C    0.004372  -0.079493  -0.053237   0.007072   0.531010  -0.039890
     8  H    0.000230   0.003880   0.009047  -0.000075  -0.041133  -0.005931
     9  C   -0.059249   0.431558  -0.136546   0.003186  -0.054946   0.008950
    10  C   -0.016077  -0.046751   0.008623  -0.000630   0.006829  -0.000251
    11  N    0.334756  -0.037606  -0.000159   0.000217  -0.000196   0.000002
    12  C   -0.031959  -0.000164  -0.000034  -0.000043   0.000025   0.000000
    13  H   -0.003316   0.000217  -0.000043  -0.000007  -0.000001   0.000000
    14  C    0.003088  -0.000196   0.000025  -0.000001   0.000004   0.000000
    15  H    0.000178   0.000002   0.000000   0.000000   0.000000   0.000000
    16  C    0.004406   0.000503   0.000028   0.000003  -0.000041   0.000000
    17  H    0.000231  -0.000012  -0.000002   0.000000  -0.000001   0.000000
    18  C   -0.059347  -0.005280   0.000448   0.000040  -0.001453   0.000006
    19  F    0.480023  -0.026304  -0.002431  -0.000126  -0.000073   0.000001
    20  F    0.450319  -0.027306   0.008319   0.004169   0.000547   0.000002
    21  C    0.002744   0.003548  -0.000068   0.000017   0.000768  -0.000006
    22  C   -0.000131   0.000059  -0.000042  -0.000002  -0.000225   0.000010
    23  H    0.000009  -0.000002  -0.000102   0.000001   0.000874  -0.000001
    24  C   -0.000007  -0.000006   0.000000   0.000000  -0.000019   0.000000
    25  H    0.000000   0.000000   0.000000   0.000000  -0.000001   0.000000
    26  C    0.000000   0.000000   0.000000   0.000000   0.000000   0.000000
    27  C   -0.000007   0.000000   0.000000   0.000000   0.000000   0.000000
    28  H    0.000000   0.000000   0.000000   0.000000   0.000000   0.000000
    29  C   -0.000132  -0.000072   0.000006   0.000000   0.000014   0.000000
    30  H    0.000008  -0.000003   0.000000   0.000000   0.000000   0.000000
    31  H    0.000000   0.000000   0.000000   0.000000   0.000000   0.000000
               7          8          9         10         11         12
     1  B    0.004372   0.000230  -0.059249  -0.016077   0.334756  -0.031959
     2  N   -0.079493   0.003880   0.431558  -0.046751  -0.037606  -0.000164
     3  C   -0.053237   0.009047  -0.136546   0.008623  -0.000159  -0.000034
     4  H    0.007072  -0.000075   0.003186  -0.000630   0.000217  -0.000043
     5  C    0.531010  -0.041133  -0.054946   0.006829  -0.000196   0.000025
     6  H   -0.039890  -0.005931   0.008950  -0.000251   0.000002   0.000000
     7  C    4.892160   0.418284   0.464742  -0.090781   0.000501   0.000029
     8  H    0.418284   0.641548  -0.043295  -0.006181  -0.000012  -0.000002
     9  C    0.464742  -0.043295   5.067924   0.294414  -0.005286   0.000455
    10  C   -0.090781  -0.006181   0.294414   5.517106  -0.046735   0.008623
    11  N    0.000501  -0.000012  -0.005286  -0.046735   6.188216   0.495334
    12  C    0.000029  -0.000002   0.000455   0.008623   0.495334   4.775314
    13  H    0.000003   0.000000   0.000040  -0.000630  -0.025571   0.406181
    14  C   -0.000041  -0.000001  -0.001450   0.006818  -0.053277   0.462157
    15  H    0.000000   0.000000   0.000006  -0.000251   0.003736  -0.042218
    16  C    0.000244   0.000040   0.005811  -0.090668  -0.079430  -0.053285
    17  H    0.000040   0.000002   0.000164  -0.006173   0.003881   0.009048
    18  C    0.005833   0.000162  -0.061120   0.293834   0.431530  -0.136545
    19  F    0.000078   0.000001  -0.000976   0.002711  -0.026281  -0.002426
    20  F   -0.000106   0.000001  -0.001914   0.000297  -0.027303   0.008305
    21  C   -0.013558  -0.001029  -0.040039   0.381547   0.003543  -0.000068
    22  C   -0.003434   0.003045  -0.023758  -0.081698  -0.000072   0.000006
    23  H    0.004115  -0.000137   0.008250  -0.026712  -0.000003   0.000000
    24  C    0.000596   0.000650   0.000377   0.010821   0.000000   0.000000
    25  H    0.000011   0.000019   0.000042  -0.000448   0.000000   0.000000
    26  C   -0.000013  -0.000025  -0.000041   0.000700   0.000000   0.000000
    27  C    0.000008  -0.000007  -0.000334   0.010820  -0.000006   0.000000
    28  H    0.000000   0.000000   0.000004  -0.000448   0.000000   0.000000
    29  C   -0.000091  -0.000118   0.013167  -0.081702   0.000059  -0.000042
    30  H   -0.000028  -0.000003   0.000666  -0.026712  -0.000003  -0.000101
    31  H    0.000000   0.000000   0.000000   0.000011   0.000000   0.000000
              13         14         15         16         17         18
     1  B   -0.003316   0.003088   0.000178   0.004406   0.000231  -0.059347
     2  N    0.000217  -0.000196   0.000002   0.000503  -0.000012  -0.005280
     3  C   -0.000043   0.000025   0.000000   0.000028  -0.000002   0.000448
     4  H   -0.000007  -0.000001   0.000000   0.000003   0.000000   0.000040
     5  C   -0.000001   0.000004   0.000000  -0.000041  -0.000001  -0.001453
     6  H    0.000000   0.000000   0.000000   0.000000   0.000000   0.000006
     7  C    0.000003  -0.000041   0.000000   0.000244   0.000040   0.005833
     8  H    0.000000  -0.000001   0.000000   0.000040   0.000002   0.000162
     9  C    0.000040  -0.001450   0.000006   0.005811   0.000164  -0.061120
    10  C   -0.000630   0.006818  -0.000251  -0.090668  -0.006173   0.293834
    11  N   -0.025571  -0.053277   0.003736  -0.079430   0.003881   0.431530
    12  C    0.406181   0.462157  -0.042218  -0.053285   0.009048  -0.136545
    13  H    0.599838  -0.041257  -0.003362   0.007067  -0.000075   0.003188
    14  C   -0.041257   4.798502   0.413010   0.530981  -0.041135  -0.054913
    15  H   -0.003362   0.413010   0.640699  -0.039878  -0.005929   0.008944
    16  C    0.007067   0.530981  -0.039878   4.891944   0.418329   0.464834
    17  H   -0.000075  -0.041135  -0.005929   0.418329   0.641442  -0.043302
    18  C    0.003188  -0.054913   0.008944   0.464834  -0.043302   5.068680
    19  F   -0.000126  -0.000072   0.000001   0.000077   0.000001  -0.000992
    20  F    0.004170   0.000546   0.000002  -0.000106   0.000001  -0.001913
    21  C    0.000017   0.000769  -0.000006  -0.013546  -0.001038  -0.040114
    22  C    0.000000   0.000014   0.000000  -0.000092  -0.000118   0.013160
    23  H    0.000000   0.000000   0.000000  -0.000028  -0.000003   0.000666
    24  C    0.000000   0.000000   0.000000   0.000008  -0.000007  -0.000334
    25  H    0.000000   0.000000   0.000000   0.000000   0.000000   0.000004
    26  C    0.000000   0.000000   0.000000  -0.000013  -0.000025  -0.000041
    27  C    0.000000  -0.000019   0.000000   0.000596   0.000648   0.000376
    28  H    0.000000  -0.000001   0.000000   0.000011   0.000019   0.000042
    29  C   -0.000002  -0.000228   0.000010  -0.003440   0.003040  -0.023725
    30  H    0.000001   0.000871  -0.000002   0.004134  -0.000126   0.008242
    31  H    0.000000   0.000000   0.000000   0.000000   0.000000   0.000000
              19         20         21         22         23         24
     1  B    0.480023   0.450319   0.002744  -0.000131   0.000009  -0.000007
     2  N   -0.026304  -0.027306   0.003548   0.000059  -0.000002  -0.000006
     3  C   -0.002431   0.008319  -0.000068  -0.000042  -0.000102   0.000000
     4  H   -0.000126   0.004169   0.000017  -0.000002   0.000001   0.000000
     5  C   -0.000073   0.000547   0.000768  -0.000225   0.000874  -0.000019
     6  H    0.000001   0.000002  -0.000006   0.000010  -0.000001   0.000000
     7  C    0.000078  -0.000106  -0.013558  -0.003434   0.004115   0.000596
     8  H    0.000001   0.000001  -0.001029   0.003045  -0.000137   0.000650
     9  C   -0.000976  -0.001914  -0.040039  -0.023758   0.008250   0.000377
    10  C    0.002711   0.000297   0.381547  -0.081698  -0.026712   0.010821
    11  N   -0.026281  -0.027303   0.003543  -0.000072  -0.000003   0.000000
    12  C   -0.002426   0.008305  -0.000068   0.000006   0.000000   0.000000
    13  H   -0.000126   0.004170   0.000017   0.000000   0.000000   0.000000
    14  C   -0.000072   0.000546   0.000769   0.000014   0.000000   0.000000
    15  H    0.000001   0.000002  -0.000006   0.000000   0.000000   0.000000
    16  C    0.000077  -0.000106  -0.013546  -0.000092  -0.000028   0.000008
    17  H    0.000001   0.000001  -0.001038  -0.000118  -0.000003  -0.000007
    18  C   -0.000992  -0.001913  -0.040114   0.013160   0.000666  -0.000334
    19  F    8.806412  -0.015416   0.000170  -0.000004   0.000002   0.000000
    20  F   -0.015416   8.823212  -0.000001   0.000000   0.000000   0.000000
    21  C    0.000170  -0.000001   4.833557   0.477204  -0.037452   0.004869
    22  C   -0.000004   0.000000   0.477204   4.907537   0.393593   0.518633
    23  H    0.000002   0.000000  -0.037452   0.393593   0.682445  -0.040376
    24  C    0.000000   0.000000   0.004869   0.518633  -0.040376   4.702266
    25  H    0.000000   0.000000   0.008743  -0.032000  -0.013668   0.393630
    26  C    0.000000   0.000000  -0.064948  -0.020213   0.009296   0.503843
    27  C    0.000000   0.000000   0.004877  -0.067766  -0.000978  -0.004351
    28  H    0.000000   0.000000   0.008743   0.000273   0.000057   0.008300
    29  C   -0.000004   0.000000   0.477219  -0.063919   0.010006  -0.067752
    30  H    0.000002   0.000000  -0.037446   0.010010  -0.000088  -0.000979
    31  H    0.000000   0.000000  -0.000420   0.009674  -0.000200  -0.043706
              25         26         27         28         29         30
     1  B    0.000000   0.000000  -0.000007   0.000000  -0.000132   0.000008
     2  N    0.000000   0.000000   0.000000   0.000000  -0.000072  -0.000003
     3  C    0.000000   0.000000   0.000000   0.000000   0.000006   0.000000
     4  H    0.000000   0.000000   0.000000   0.000000   0.000000   0.000000
     5  C   -0.000001   0.000000   0.000000   0.000000   0.000014   0.000000
     6  H    0.000000   0.000000   0.000000   0.000000   0.000000   0.000000
     7  C    0.000011  -0.000013   0.000008   0.000000  -0.000091  -0.000028
     8  H    0.000019  -0.000025  -0.000007   0.000000  -0.000118  -0.000003
     9  C    0.000042  -0.000041  -0.000334   0.000004   0.013167   0.000666
    10  C   -0.000448   0.000700   0.010820  -0.000448  -0.081702  -0.026712
    11  N    0.000000   0.000000  -0.000006   0.000000   0.000059  -0.000003
    12  C    0.000000   0.000000   0.000000   0.000000  -0.000042  -0.000101
    13  H    0.000000   0.000000   0.000000   0.000000  -0.000002   0.000001
    14  C    0.000000   0.000000  -0.000019  -0.000001  -0.000228   0.000871
    15  H    0.000000   0.000000   0.000000   0.000000   0.000010  -0.000002
    16  C    0.000000  -0.000013   0.000596   0.000011  -0.003440   0.004134
    17  H    0.000000  -0.000025   0.000648   0.000019   0.003040  -0.000126
    18  C    0.000004  -0.000041   0.000376   0.000042  -0.023725   0.008242
    19  F    0.000000   0.000000   0.000000   0.000000  -0.000004   0.000002
    20  F    0.000000   0.000000   0.000000   0.000000   0.000000   0.000000
    21  C    0.008743  -0.064948   0.004877   0.008743   0.477219  -0.037446
    22  C   -0.032000  -0.020213  -0.067766   0.000273  -0.063919   0.010010
    23  H   -0.013668   0.009296  -0.000978   0.000057   0.010006  -0.000088
    24  C    0.393630   0.503843  -0.004351   0.008300  -0.067752  -0.000979
    25  H    0.678072  -0.046947   0.008300  -0.000233   0.000273   0.000057
    26  C   -0.046947   4.769073   0.503864  -0.046955  -0.020218   0.009301
    27  C    0.008300   0.503864   4.702238   0.393629   0.518645  -0.040374
    28  H   -0.000233  -0.046955   0.393629   0.678087  -0.032002  -0.013671
    29  C    0.000273  -0.020218   0.518645  -0.032002   4.907433   0.393595
    30  H    0.000057   0.009301  -0.040374  -0.013671   0.393595   0.682424
    31  H   -0.012286   0.400781  -0.043698  -0.012287   0.009674  -0.000200
              31
     1  B    0.000000
     2  N    0.000000
     3  C    0.000000
     4  H    0.000000
     5  C    0.000000
     6  H    0.000000
     7  C    0.000000
     8  H    0.000000
     9  C    0.000000
    10  C    0.000011
    11  N    0.000000
    12  C    0.000000
    13  H    0.000000
    14  C    0.000000
    15  H    0.000000
    16  C    0.000000
    17  H    0.000000
    18  C    0.000000
    19  F    0.000000
    20  F    0.000000
    21  C   -0.000420
    22  C    0.009674
    23  H   -0.000200
    24  C   -0.043706
    25  H   -0.012286
    26  C    0.400781
    27  C   -0.043698
    28  H   -0.012287
    29  C    0.009674
    30  H   -0.000200
    31  H    0.676518
 Mulliken charges:
               1
     1  B    0.203545
     2  N   -0.160044
     3  C    0.101390
     4  H    0.053610
     5  C   -0.024240
     6  H    0.025006
     7  C   -0.048421
     8  H    0.021039
     9  C    0.129196
    10  C   -0.020305
    11  N   -0.159838
    12  C    0.101410
    13  H    0.053668
    14  C   -0.024193
    15  H    0.025058
    16  C   -0.048489
    17  H    0.021099
    18  C    0.129090
    19  F   -0.214248
    20  F   -0.225824
    21  C    0.041402
    22  C   -0.039745
    23  H    0.010437
    24  C    0.013544
    25  H    0.016429
    26  C    0.002580
    27  C    0.013539
    28  H    0.016432
    29  C   -0.039693
    30  H    0.010425
    31  H    0.016140
 Sum of Mulliken charges =   0.00000
 Mulliken charges with hydrogens summed into heavy atoms:
               1
     1  B    0.203545
     2  N   -0.160044
     3  C    0.155000
     5  C    0.000767
     7  C   -0.027382
     9  C    0.129196
    10  C   -0.020305
    11  N   -0.159838
    12  C    0.155078
    14  C    0.000865
    16  C   -0.027390
    18  C    0.129090
    19  F   -0.214248
    20  F   -0.225824
    21  C    0.041402
    22  C   -0.029308
    24  C    0.029973
    26  C    0.018720
    27  C    0.029971
    29  C   -0.029267
 Electronic spatial extent (au):  <R**2>=           8571.9894
 Charge=              0.0000 electrons
 Dipole moment (field-independent basis, Debye):
    X=             -2.7941    Y=             -3.7010    Z=              1.4790  Tot=              4.8675
 Quadrupole moment (field-independent basis, Debye-Ang):
   XX=            -89.6251   YY=           -123.1317   ZZ=            -91.0867
   XY=             -0.2601   XZ=             -1.2037   YZ=             -5.3856
 Traceless Quadrupole moment (field-independent basis, Debye-Ang):
   XX=             11.6561   YY=            -21.8505   ZZ=             10.1945
   XY=             -0.2601   XZ=             -1.2037   YZ=             -5.3856
 Octapole moment (field-independent basis, Debye-Ang**2):
  XXX=            614.6126  YYY=            -56.1410  ZZZ=           -497.4582  XYY=            268.0932
  XXY=             -8.7011  XXZ=           -138.7254  XZZ=            190.3918  YZZ=            -30.7845
  YYZ=           -204.3868  XYZ=             -9.5727
 Hexadecapole moment (field-independent basis, Debye-Ang**3):
 XXXX=          -5642.4859 YYYY=           -587.9297 ZZZZ=          -4175.6132 XXXY=             55.9059
 XXXZ=           1385.6402 YYYX=            176.0978 YYYZ=            -16.3560 ZZZX=           1434.5847
 ZZZY=            -47.4298 XXYY=          -1264.9159 XXZZ=          -1535.4982 YYZZ=           -914.8523
 XXYZ=             75.9877 YYXZ=            646.8842 ZZXY=             21.3011
 N-N= 1.473217615553D+03 E-N=-5.075896860524D+03  KE= 9.065835738562D+02
 No NMR shielding tensors so no spin-rotation constants.
 Leave Link  601 at Sun Sep 30 12:37:31 2018, MaxMem= 12079595520 cpu:         9.9
 (Enter /scratch/prg/gaussian/bin/g09/l9999.exe)
 1\1\GINC-FIZIKA29-IB\FOpt\RM062X TD-FC\CC-pVDZ\C15H11B1F2N2\STETOL\30-
 Sep-2018\0\\#p m062x cc-pvdz scrf=(cpcm,solvent=Toluene) td=(nstate=6,
 root=1) opt=tight nosymm density=all int=ultrafine fchk\\BODIPY-phenyl
  at around S1R minimum in toluene\\0,1\B,-0.2264591787,1.0268116198,0.
 3664631356\N,-0.0634622727,0.1171580614,1.6182949345\C,1.0488087904,-0
 .4058978018,2.1352219523\H,2.0211935994,-0.1677212162,1.710814898\C,0.
 7147444232,-1.2451778924,3.2285180726\H,1.422670519,-1.7894110494,3.84
 68910032\C,-0.6709428248,-1.2298533615,3.3456112928\H,-1.2819193263,-1
 .7952566486,4.0424792435\C,-1.1632783326,-0.3500780918,2.3456979156\C,
 -2.5018707506,-0.0092786144,1.9175804851\N,-1.513185547,0.4474182529,-
 0.2885277669\C,-1.774373682,0.2358499107,-1.5789223498\H,-1.0614862136
 ,0.534415337,-2.3438262542\C,-3.0375829796,-0.3952677287,-1.7099520788
 \H,-3.5118426353,-0.6717992025,-2.6471722763\C,-3.5346085281,-0.583146
 757,-0.4247139731\H,-4.4563861612,-1.0800781956,-0.1383131661\C,-2.585
 3266187,-0.0283264132,0.4736831782\F,-0.4245635831,2.3471257268,0.7460
 288579\F,0.856740275,0.8763027436,-0.4830468474\C,-3.6264010173,0.1530
 850868,2.7995805129\C,-3.4692437916,0.100324237,4.2066274955\H,-2.4773
 415629,-0.0395648003,4.6336733983\C,-4.5566160061,0.2617386136,5.05337
 90463\H,-4.4058855215,0.2185102763,6.1325105247\C,-5.8335527617,0.4921
 303452,4.534417494\C,-6.0021757353,0.5881386208,3.150548119\H,-6.98728
 97772,0.8014908307,2.7343769279\C,-4.9214446898,0.4281184738,2.2950367
 85\H,-5.0688286495,0.54547982,1.2224942282\H,-6.6854954599,0.616762817
 1,5.2029672117\\Version=EM64L-G09RevD.01\HF=-912.1559632\RMSD=5.456e-0
 9\RMSF=1.911e-06\Dipole=-1.0993024,-1.456091,0.5818987\Quadrupole=8.66
 59951,-16.2453313,7.5793361,-0.1933958,-0.894891,-4.0040535\PG=C01 [X(
 C15H11B1F2N2)]\\@


 JUST WHEN YOU THINK YOU'VE GOT THE WORLD ON A STRING,
 YOU FIND OUT IT'S YOUR LEASH.
 Warning:  fchk array  ILSW element          12 has value       6710886400000 set to -1.
 Job cpu time:       0 days  0 hours 47 minutes 19.0 seconds.
 File lengths (MBytes):  RWF=    350 Int=      0 D2E=      0 Chk=     36 Scr=      1
 Normal termination of Gaussian 09 at Sun Sep 30 12:38:04 2018.
