 Entering Gaussian System, Link 0=/lustre1/prg/gaussian/bin/G16_C01_Linda9.2_SSE4/g16/g16
 Initial command:
 /lustre1/prg/gaussian/bin/G16_C01_Linda9.2_SSE4/g16/l1.exe "/lustre1/prg/webmo/data/webmo20/toliste/4414/scratch/Gau-46375.inp" -scrdir="/lustre1/prg/webmo/data/webmo20/toliste/4414/scratch/"
 Default is to use a total of  12 processors:
                               12 via shared-memory
                                1 via Linda
 Entering Link 1 = /lustre1/prg/gaussian/bin/G16_C01_Linda9.2_SSE4/g16/l1.exe PID=     46376.
  
 Copyright (c) 1988-2019, Gaussian, Inc.  All Rights Reserved.
  
 This is part of the Gaussian(R) 16 program.  It is based on
 the Gaussian(R) 09 system (copyright 2009, Gaussian, Inc.),
 the Gaussian(R) 03 system (copyright 2003, Gaussian, Inc.),
 the Gaussian(R) 98 system (copyright 1998, Gaussian, Inc.),
 the Gaussian(R) 94 system (copyright 1995, Gaussian, Inc.),
 the Gaussian 92(TM) system (copyright 1992, Gaussian, Inc.),
 the Gaussian 90(TM) system (copyright 1990, Gaussian, Inc.),
 the Gaussian 88(TM) system (copyright 1988, Gaussian, Inc.),
 the Gaussian 86(TM) system (copyright 1986, Carnegie Mellon
 University), and the Gaussian 82(TM) system (copyright 1983,
 Carnegie Mellon University). Gaussian is a federally registered
 trademark of Gaussian, Inc.
  
 This software contains proprietary and confidential information,
 including trade secrets, belonging to Gaussian, Inc.
  
 This software is provided under written license and may be
 used, copied, transmitted, or stored only in accord with that
 written license.
  
 The following legend is applicable only to US Government
 contracts under FAR:
  
                    RESTRICTED RIGHTS LEGEND
  
 Use, reproduction and disclosure by the US Government is
 subject to restrictions as set forth in subparagraphs (a)
 and (c) of the Commercial Computer Software - Restricted
 Rights clause in FAR 52.227-19.
  
 Gaussian, Inc.
 340 Quinnipiac St., Bldg. 40, Wallingford CT 06492
  
  
 ---------------------------------------------------------------
 Warning -- This program may not be used in any manner that
 competes with the business of Gaussian, Inc. or will provide
 assistance to any competitor of Gaussian, Inc.  The licensee
 of this program is prohibited from giving any competitor of
 Gaussian, Inc. access to this program.  By using this program,
 the user acknowledges that Gaussian, Inc. is engaged in the
 business of creating and licensing software in the field of
 computational chemistry and represents and warrants to the
 licensee that it is not a competitor of Gaussian, Inc. and that
 it will not use this program in any manner prohibited above.
 ---------------------------------------------------------------
  

 Cite this work as:
 Gaussian 16, Revision C.01,
 M. J. Frisch, G. W. Trucks, H. B. Schlegel, G. E. Scuseria, 
 M. A. Robb, J. R. Cheeseman, G. Scalmani, V. Barone, 
 G. A. Petersson, H. Nakatsuji, X. Li, M. Caricato, A. V. Marenich, 
 J. Bloino, B. G. Janesko, R. Gomperts, B. Mennucci, H. P. Hratchian, 
 J. V. Ortiz, A. F. Izmaylov, J. L. Sonnenberg, D. Williams-Young, 
 F. Ding, F. Lipparini, F. Egidi, J. Goings, B. Peng, A. Petrone, 
 T. Henderson, D. Ranasinghe, V. G. Zakrzewski, J. Gao, N. Rega, 
 G. Zheng, W. Liang, M. Hada, M. Ehara, K. Toyota, R. Fukuda, 
 J. Hasegawa, M. Ishida, T. Nakajima, Y. Honda, O. Kitao, H. Nakai, 
 T. Vreven, K. Throssell, J. A. Montgomery, Jr., J. E. Peralta, 
 F. Ogliaro, M. J. Bearpark, J. J. Heyd, E. N. Brothers, K. N. Kudin, 
 V. N. Staroverov, T. A. Keith, R. Kobayashi, J. Normand, 
 K. Raghavachari, A. P. Rendell, J. C. Burant, S. S. Iyengar, 
 J. Tomasi, M. Cossi, J. M. Millam, M. Klene, C. Adamo, R. Cammi, 
 J. W. Ochterski, R. L. Martin, K. Morokuma, O. Farkas, 
 J. B. Foresman, and D. J. Fox, Gaussian, Inc., Wallingford CT, 2019.
 
 ******************************************
 Gaussian 16:  ES64L-G16RevC.01  3-Jul-2019
                 1-Feb-2022 
 ******************************************
 %LindaWorkers=fizika11,fizika12,fizika18,fizika19,fizika20,fizika21,fizika30,fiz
 ika32
 %chk=bodipy.chk
 SetLPE:  input flags=" -opt "Tsnet.Node.lindarsharg: ssh" "
 SetLPE:    new flags=" -opt "Tsnet.Node.lindarsharg: ssh" -opt 'Tsnet.Node.lindarsharg: ssh'  -nodelist 'fizika11.fizika.bullx fizika12.fizika.bullx fizika18.fizika.bullx fizika19.fizika.bullx fizika20.fizika.bullx fizika21.fizika.bullx fizika30.fizika.bullx fizika32.fizika.bullx' -env GAUSS_MDEF=11408506880 -env GAUSS_EXEDIR="/lustre1/prg/gaussian/bin/G16_C01_Linda9.2_SSE4/g16/bsd:/lustre1/prg/gaussian/bin/G16_C01_Linda9.2_SSE4/g16/private:/lustre1/prg/gaussian/bin/G16_C01_Linda9.2_SSE4/g16""
 Will use up to    8 processors via Linda.
 ----------------------------------------------------------------------
 #p m062x cc-pvdz scrf=(cpcm,solvent=TetraHydroFuran) opt=(tight,calcfc
 ) freq nosymm int=ultrafine fchk
 ----------------------------------------------------------------------
 1/7=10,10=4,18=20,19=15,26=6,38=1/1,3;
 2/9=110,12=2,15=1,17=6,18=5,40=1/2;
 3/5=16,11=2,25=1,30=1,70=2101,71=2,72=20,74=-55,75=-5,140=1/1,2,3;
 4//1;
 5/5=2,38=5,53=20/2;
 8/6=4,10=90,11=11/1;
 11/6=1,8=1,9=11,15=111,16=1,31=1/1,2,10;
 10/6=1,13=1,31=1/2;
 6/7=2,8=2,9=2,10=2,28=1/1;
 7/10=1,25=1,30=1/1,2,3,16;
 1/7=10,10=4,18=20,19=15,26=6/3(2);
 2/9=110,15=1/2;
 99//99;
 2/9=110,15=1/2;
 3/5=16,11=2,25=1,30=1,70=2105,71=1,72=20,74=-55,75=-5/1,2,3;
 4/5=5,16=3,69=1/1;
 5/5=2,38=5,53=20/2;
 7/30=1/1,2,3,16;
 1/7=10,18=20,19=15,26=6/3(-5);
 2/9=110,15=1/2;
 6/7=2,8=2,9=2,10=2,19=2,28=1/1;
 99/9=1/99;
 Leave Link    1 at Tue Feb  1 12:09:40 2022, MaxMem=           0 cpu:               1.8 elap:               0.2
 (Enter /lustre1/prg/gaussian/bin/G16_C01_Linda9.2_SSE4/g16/l101.exe)
 -----------------------------------
 BDP-phenyl, optimized S0 in toluene
 -----------------------------------
 Symbolic Z-matrix:
 Charge =  0 Multiplicity = 1
 B                    -0.00469  -0.10715   0.00523 
 N                     0.00355  -0.0348    1.56053 
 C                     1.09142   0.03399   2.3329 
 H                     2.08367   0.04716   1.88742 
 C                     0.72032   0.0914    3.69253 
 H                     1.40229   0.16063   4.53392 
 C                    -0.66717   0.06113   3.72674 
 H                    -1.31044   0.11634   4.60031 
 C                    -1.11444  -0.02512   2.38272 
 C                    -2.41075  -0.01349   1.84304 
 N                    -1.49909   0.04475  -0.4088 
 C                    -1.95685   0.07014  -1.66364 
 H                    -1.26471   0.08307  -2.50272 
 C                    -3.36721   0.06095  -1.66801 
 H                    -3.9994    0.07658  -2.55003 
 C                    -3.76782   0.01911  -0.33944 
 H                    -4.78289  -0.01718   0.04535 
 C                    -2.589     0.01886   0.45061 
 F                     0.75672   0.92638  -0.52704 
 F                     0.4778   -1.34134  -0.4211 
 C                    -3.58379  -0.01873   2.7443 
 C                    -3.70423  -1.00041   3.73869 
 H                    -2.93739  -1.77114   3.82768 
 C                    -4.81073  -1.00786   4.58442 
 H                    -4.90286  -1.78306   5.34553 
 C                    -5.79759  -0.03012   4.45627 
 C                    -5.67894   0.95398   3.47453 
 H                    -6.44292   1.72571   3.37709 
 C                    -4.58181   0.95827   2.61672 
 H                    -4.47817   1.73648   1.85944 
 H                    -6.6603   -0.03455   5.12325 
 
 ITRead=  0  0  0  0  0  0  0  0  0  0  0  0  0  0  0  0  0  0  0  0
 ITRead=  0  0  0  0  0  0  0  0  0  0  0
 MicOpt= -1 -1 -1 -1 -1 -1 -1 -1 -1 -1 -1 -1 -1 -1 -1 -1 -1 -1 -1 -1
 MicOpt= -1 -1 -1 -1 -1 -1 -1 -1 -1 -1 -1
 NAtoms=     31 NQM=       31 NQMF=       0 NMMI=      0 NMMIF=      0
                NMic=       0 NMicF=      0.
                    Isotopes and Nuclear Properties:
 (Nuclear quadrupole moments (NQMom) in fm**2, nuclear magnetic moments (NMagM)
  in nuclear magnetons)

  Atom         1           2           3           4           5           6           7           8           9          10
 IAtWgt=          11          14          12           1          12           1          12           1          12          12
 AtmWgt=  11.0093053  14.0030740  12.0000000   1.0078250  12.0000000   1.0078250  12.0000000   1.0078250  12.0000000  12.0000000
 NucSpn=           3           2           0           1           0           1           0           1           0           0
 AtZEff=  -0.0000000  -0.0000000  -0.0000000  -0.0000000  -0.0000000  -0.0000000  -0.0000000  -0.0000000  -0.0000000  -0.0000000
 NQMom=    4.0590000   2.0440000   0.0000000   0.0000000   0.0000000   0.0000000   0.0000000   0.0000000   0.0000000   0.0000000
 NMagM=    2.6886370   0.4037610   0.0000000   2.7928460   0.0000000   2.7928460   0.0000000   2.7928460   0.0000000   0.0000000
 AtZNuc=   5.0000000   7.0000000   6.0000000   1.0000000   6.0000000   1.0000000   6.0000000   1.0000000   6.0000000   6.0000000

  Atom        11          12          13          14          15          16          17          18          19          20
 IAtWgt=          14          12           1          12           1          12           1          12          19          19
 AtmWgt=  14.0030740  12.0000000   1.0078250  12.0000000   1.0078250  12.0000000   1.0078250  12.0000000  18.9984033  18.9984033
 NucSpn=           2           0           1           0           1           0           1           0           1           1
 AtZEff=  -0.0000000  -0.0000000  -0.0000000  -0.0000000  -0.0000000  -0.0000000  -0.0000000  -0.0000000  -0.0000000  -0.0000000
 NQMom=    2.0440000   0.0000000   0.0000000   0.0000000   0.0000000   0.0000000   0.0000000   0.0000000   0.0000000   0.0000000
 NMagM=    0.4037610   0.0000000   2.7928460   0.0000000   2.7928460   0.0000000   2.7928460   0.0000000   2.6288670   2.6288670
 AtZNuc=   7.0000000   6.0000000   1.0000000   6.0000000   1.0000000   6.0000000   1.0000000   6.0000000   9.0000000   9.0000000

  Atom        21          22          23          24          25          26          27          28          29          30
 IAtWgt=          12          12           1          12           1          12          12           1          12           1
 AtmWgt=  12.0000000  12.0000000   1.0078250  12.0000000   1.0078250  12.0000000  12.0000000   1.0078250  12.0000000   1.0078250
 NucSpn=           0           0           1           0           1           0           0           1           0           1
 AtZEff=  -0.0000000  -0.0000000  -0.0000000  -0.0000000  -0.0000000  -0.0000000  -0.0000000  -0.0000000  -0.0000000  -0.0000000
 NQMom=    0.0000000   0.0000000   0.0000000   0.0000000   0.0000000   0.0000000   0.0000000   0.0000000   0.0000000   0.0000000
 NMagM=    0.0000000   0.0000000   2.7928460   0.0000000   2.7928460   0.0000000   0.0000000   2.7928460   0.0000000   2.7928460
 AtZNuc=   6.0000000   6.0000000   1.0000000   6.0000000   1.0000000   6.0000000   6.0000000   1.0000000   6.0000000   1.0000000

  Atom        31
 IAtWgt=           1
 AtmWgt=   1.0078250
 NucSpn=           1
 AtZEff=  -0.0000000
 NQMom=    0.0000000
 NMagM=    2.7928460
 AtZNuc=   1.0000000
 Leave Link  101 at Tue Feb  1 12:09:41 2022, MaxMem= 11408506880 cpu:               8.5 elap:               0.7
 (Enter /lustre1/prg/gaussian/bin/G16_C01_Linda9.2_SSE4/g16/l103.exe)

 GradGradGradGradGradGradGradGradGradGradGradGradGradGradGradGradGradGrad
 Berny optimization.
 Initialization pass.
                           ----------------------------
                           !    Initial Parameters    !
                           ! (Angstroms and Degrees)  !
 --------------------------                            --------------------------
 ! Name  Definition              Value          Derivative Info.                !
 --------------------------------------------------------------------------------
 ! R1    R(1,2)                  1.557          calculate D2E/DX2 analytically  !
 ! R2    R(1,11)                 1.5581         calculate D2E/DX2 analytically  !
 ! R3    R(1,19)                 1.3897         calculate D2E/DX2 analytically  !
 ! R4    R(1,20)                 1.392          calculate D2E/DX2 analytically  !
 ! R5    R(2,3)                  1.3359         calculate D2E/DX2 analytically  !
 ! R6    R(2,9)                  1.3878         calculate D2E/DX2 analytically  !
 ! R7    R(3,4)                  1.0877         calculate D2E/DX2 analytically  !
 ! R8    R(3,5)                  1.4105         calculate D2E/DX2 analytically  !
 ! R9    R(5,6)                  1.0853         calculate D2E/DX2 analytically  !
 ! R10   R(5,7)                  1.3882         calculate D2E/DX2 analytically  !
 ! R11   R(7,8)                  1.0863         calculate D2E/DX2 analytically  !
 ! R12   R(7,9)                  1.4191         calculate D2E/DX2 analytically  !
 ! R13   R(9,10)                 1.4042         calculate D2E/DX2 analytically  !
 ! R14   R(10,18)                1.4042         calculate D2E/DX2 analytically  !
 ! R15   R(10,21)                1.4793         calculate D2E/DX2 analytically  !
 ! R16   R(11,12)                1.336          calculate D2E/DX2 analytically  !
 ! R17   R(11,18)                1.3882         calculate D2E/DX2 analytically  !
 ! R18   R(12,13)                1.0878         calculate D2E/DX2 analytically  !
 ! R19   R(12,14)                1.4104         calculate D2E/DX2 analytically  !
 ! R20   R(14,15)                1.0853         calculate D2E/DX2 analytically  !
 ! R21   R(14,16)                1.3883         calculate D2E/DX2 analytically  !
 ! R22   R(16,17)                1.0862         calculate D2E/DX2 analytically  !
 ! R23   R(16,18)                1.4191         calculate D2E/DX2 analytically  !
 ! R24   R(21,22)                1.4025         calculate D2E/DX2 analytically  !
 ! R25   R(21,29)                1.4024         calculate D2E/DX2 analytically  !
 ! R26   R(22,23)                1.0909         calculate D2E/DX2 analytically  !
 ! R27   R(22,24)                1.3927         calculate D2E/DX2 analytically  !
 ! R28   R(24,25)                1.0903         calculate D2E/DX2 analytically  !
 ! R29   R(24,26)                1.3951         calculate D2E/DX2 analytically  !
 ! R30   R(26,27)                1.3951         calculate D2E/DX2 analytically  !
 ! R31   R(26,31)                1.0905         calculate D2E/DX2 analytically  !
 ! R32   R(27,28)                1.0903         calculate D2E/DX2 analytically  !
 ! R33   R(27,29)                1.3927         calculate D2E/DX2 analytically  !
 ! R34   R(29,30)                1.0908         calculate D2E/DX2 analytically  !
 ! A1    A(2,1,11)             105.4249         calculate D2E/DX2 analytically  !
 ! A2    A(2,1,19)             110.19           calculate D2E/DX2 analytically  !
 ! A3    A(2,1,20)             110.1997         calculate D2E/DX2 analytically  !
 ! A4    A(11,1,19)            110.5614         calculate D2E/DX2 analytically  !
 ! A5    A(11,1,20)            109.7234         calculate D2E/DX2 analytically  !
 ! A6    A(19,1,20)            110.6208         calculate D2E/DX2 analytically  !
 ! A7    A(1,2,3)              125.747          calculate D2E/DX2 analytically  !
 ! A8    A(1,2,9)              126.0051         calculate D2E/DX2 analytically  !
 ! A9    A(3,2,9)              108.2475         calculate D2E/DX2 analytically  !
 ! A10   A(2,3,4)              120.4425         calculate D2E/DX2 analytically  !
 ! A11   A(2,3,5)              110.19           calculate D2E/DX2 analytically  !
 ! A12   A(4,3,5)              129.3654         calculate D2E/DX2 analytically  !
 ! A13   A(3,5,6)              125.7731         calculate D2E/DX2 analytically  !
 ! A14   A(3,5,7)              106.6078         calculate D2E/DX2 analytically  !
 ! A15   A(6,5,7)              127.6132         calculate D2E/DX2 analytically  !
 ! A16   A(5,7,8)              127.6313         calculate D2E/DX2 analytically  !
 ! A17   A(5,7,9)              107.0369         calculate D2E/DX2 analytically  !
 ! A18   A(8,7,9)              125.3163         calculate D2E/DX2 analytically  !
 ! A19   A(2,9,7)              107.9156         calculate D2E/DX2 analytically  !
 ! A20   A(2,9,10)             121.0672         calculate D2E/DX2 analytically  !
 ! A21   A(7,9,10)             130.8781         calculate D2E/DX2 analytically  !
 ! A22   A(9,10,18)            119.901          calculate D2E/DX2 analytically  !
 ! A23   A(9,10,21)            119.8579         calculate D2E/DX2 analytically  !
 ! A24   A(18,10,21)           120.2369         calculate D2E/DX2 analytically  !
 ! A25   A(1,11,12)            125.4557         calculate D2E/DX2 analytically  !
 ! A26   A(1,11,18)            125.9225         calculate D2E/DX2 analytically  !
 ! A27   A(12,11,18)           108.2289         calculate D2E/DX2 analytically  !
 ! A28   A(11,12,13)           120.446          calculate D2E/DX2 analytically  !
 ! A29   A(11,12,14)           110.2077         calculate D2E/DX2 analytically  !
 ! A30   A(13,12,14)           129.3425         calculate D2E/DX2 analytically  !
 ! A31   A(12,14,15)           125.7969         calculate D2E/DX2 analytically  !
 ! A32   A(12,14,16)           106.606          calculate D2E/DX2 analytically  !
 ! A33   A(15,14,16)           127.5957         calculate D2E/DX2 analytically  !
 ! A34   A(14,16,17)           127.5689         calculate D2E/DX2 analytically  !
 ! A35   A(14,16,18)           107.0424         calculate D2E/DX2 analytically  !
 ! A36   A(17,16,18)           125.3861         calculate D2E/DX2 analytically  !
 ! A37   A(10,18,11)           120.9747         calculate D2E/DX2 analytically  !
 ! A38   A(10,18,16)           131.112          calculate D2E/DX2 analytically  !
 ! A39   A(11,18,16)           107.9105         calculate D2E/DX2 analytically  !
 ! A40   A(10,21,22)           120.1681         calculate D2E/DX2 analytically  !
 ! A41   A(10,21,29)           120.4253         calculate D2E/DX2 analytically  !
 ! A42   A(22,21,29)           119.4062         calculate D2E/DX2 analytically  !
 ! A43   A(21,22,23)           119.4729         calculate D2E/DX2 analytically  !
 ! A44   A(21,22,24)           120.1669         calculate D2E/DX2 analytically  !
 ! A45   A(23,22,24)           120.343          calculate D2E/DX2 analytically  !
 ! A46   A(22,24,25)           119.6603         calculate D2E/DX2 analytically  !
 ! A47   A(22,24,26)           120.1638         calculate D2E/DX2 analytically  !
 ! A48   A(25,24,26)           120.1757         calculate D2E/DX2 analytically  !
 ! A49   A(24,26,27)           119.9239         calculate D2E/DX2 analytically  !
 ! A50   A(24,26,31)           120.0392         calculate D2E/DX2 analytically  !
 ! A51   A(27,26,31)           120.0369         calculate D2E/DX2 analytically  !
 ! A52   A(26,27,28)           120.1712         calculate D2E/DX2 analytically  !
 ! A53   A(26,27,29)           120.1725         calculate D2E/DX2 analytically  !
 ! A54   A(28,27,29)           119.656          calculate D2E/DX2 analytically  !
 ! A55   A(21,29,27)           120.1614         calculate D2E/DX2 analytically  !
 ! A56   A(21,29,30)           119.5082         calculate D2E/DX2 analytically  !
 ! A57   A(27,29,30)           120.309          calculate D2E/DX2 analytically  !
 ! D1    D(11,1,2,3)          -171.729          calculate D2E/DX2 analytically  !
 ! D2    D(11,1,2,9)             7.9925         calculate D2E/DX2 analytically  !
 ! D3    D(19,1,2,3)           -52.4114         calculate D2E/DX2 analytically  !
 ! D4    D(19,1,2,9)           127.31           calculate D2E/DX2 analytically  !
 ! D5    D(20,1,2,3)            69.9411         calculate D2E/DX2 analytically  !
 ! D6    D(20,1,2,9)          -110.3375         calculate D2E/DX2 analytically  !
 ! D7    D(2,1,11,12)          178.3265         calculate D2E/DX2 analytically  !
 ! D8    D(2,1,11,18)           -9.7273         calculate D2E/DX2 analytically  !
 ! D9    D(19,1,11,12)          59.2559         calculate D2E/DX2 analytically  !
 ! D10   D(19,1,11,18)        -128.798          calculate D2E/DX2 analytically  !
 ! D11   D(20,1,11,12)         -63.0247         calculate D2E/DX2 analytically  !
 ! D12   D(20,1,11,18)         108.9214         calculate D2E/DX2 analytically  !
 ! D13   D(1,2,3,4)              0.228          calculate D2E/DX2 analytically  !
 ! D14   D(1,2,3,5)            179.7567         calculate D2E/DX2 analytically  !
 ! D15   D(9,2,3,4)           -179.5348         calculate D2E/DX2 analytically  !
 ! D16   D(9,2,3,5)             -0.006          calculate D2E/DX2 analytically  !
 ! D17   D(1,2,9,7)           -179.4693         calculate D2E/DX2 analytically  !
 ! D18   D(1,2,9,10)            -3.315          calculate D2E/DX2 analytically  !
 ! D19   D(3,2,9,7)              0.2927         calculate D2E/DX2 analytically  !
 ! D20   D(3,2,9,10)           176.447          calculate D2E/DX2 analytically  !
 ! D21   D(2,3,5,6)           -179.4601         calculate D2E/DX2 analytically  !
 ! D22   D(2,3,5,7)             -0.2873         calculate D2E/DX2 analytically  !
 ! D23   D(4,3,5,6)              0.0143         calculate D2E/DX2 analytically  !
 ! D24   D(4,3,5,7)            179.1872         calculate D2E/DX2 analytically  !
 ! D25   D(3,5,7,8)           -178.1616         calculate D2E/DX2 analytically  !
 ! D26   D(3,5,7,9)              0.454          calculate D2E/DX2 analytically  !
 ! D27   D(6,5,7,8)              0.9912         calculate D2E/DX2 analytically  !
 ! D28   D(6,5,7,9)            179.6068         calculate D2E/DX2 analytically  !
 ! D29   D(5,7,9,2)             -0.4671         calculate D2E/DX2 analytically  !
 ! D30   D(5,7,9,10)          -176.1095         calculate D2E/DX2 analytically  !
 ! D31   D(8,7,9,2)            178.1893         calculate D2E/DX2 analytically  !
 ! D32   D(8,7,9,10)             2.5469         calculate D2E/DX2 analytically  !
 ! D33   D(2,9,10,18)           -1.4312         calculate D2E/DX2 analytically  !
 ! D34   D(2,9,10,21)          179.3128         calculate D2E/DX2 analytically  !
 ! D35   D(7,9,10,18)          173.7271         calculate D2E/DX2 analytically  !
 ! D36   D(7,9,10,21)           -5.5289         calculate D2E/DX2 analytically  !
 ! D37   D(9,10,18,11)          -0.2417         calculate D2E/DX2 analytically  !
 ! D38   D(9,10,18,16)         179.0731         calculate D2E/DX2 analytically  !
 ! D39   D(21,10,18,11)        179.0115         calculate D2E/DX2 analytically  !
 ! D40   D(21,10,18,16)         -1.6737         calculate D2E/DX2 analytically  !
 ! D41   D(9,10,21,22)         -53.1942         calculate D2E/DX2 analytically  !
 ! D42   D(9,10,21,29)         126.5694         calculate D2E/DX2 analytically  !
 ! D43   D(18,10,21,22)        127.5524         calculate D2E/DX2 analytically  !
 ! D44   D(18,10,21,29)        -52.6841         calculate D2E/DX2 analytically  !
 ! D45   D(1,11,12,13)          -6.2444         calculate D2E/DX2 analytically  !
 ! D46   D(1,11,12,14)         173.1069         calculate D2E/DX2 analytically  !
 ! D47   D(18,11,12,13)       -179.3839         calculate D2E/DX2 analytically  !
 ! D48   D(18,11,12,14)         -0.0325         calculate D2E/DX2 analytically  !
 ! D49   D(1,11,18,10)           6.7973         calculate D2E/DX2 analytically  !
 ! D50   D(1,11,18,16)        -172.6602         calculate D2E/DX2 analytically  !
 ! D51   D(12,11,18,10)        179.8963         calculate D2E/DX2 analytically  !
 ! D52   D(12,11,18,16)          0.4388         calculate D2E/DX2 analytically  !
 ! D53   D(11,12,14,15)       -179.9889         calculate D2E/DX2 analytically  !
 ! D54   D(11,12,14,16)         -0.3927         calculate D2E/DX2 analytically  !
 ! D55   D(13,12,14,15)         -0.712          calculate D2E/DX2 analytically  !
 ! D56   D(13,12,14,16)        178.8843         calculate D2E/DX2 analytically  !
 ! D57   D(12,14,16,17)       -178.7867         calculate D2E/DX2 analytically  !
 ! D58   D(12,14,16,18)          0.6442         calculate D2E/DX2 analytically  !
 ! D59   D(15,14,16,17)          0.8            calculate D2E/DX2 analytically  !
 ! D60   D(15,14,16,18)       -179.769          calculate D2E/DX2 analytically  !
 ! D61   D(14,16,18,10)        179.9405         calculate D2E/DX2 analytically  !
 ! D62   D(14,16,18,11)         -0.6769         calculate D2E/DX2 analytically  !
 ! D63   D(17,16,18,10)         -0.6128         calculate D2E/DX2 analytically  !
 ! D64   D(17,16,18,11)        178.7698         calculate D2E/DX2 analytically  !
 ! D65   D(10,21,22,23)         -1.2944         calculate D2E/DX2 analytically  !
 ! D66   D(10,21,22,24)       -179.7947         calculate D2E/DX2 analytically  !
 ! D67   D(29,21,22,23)        178.9396         calculate D2E/DX2 analytically  !
 ! D68   D(29,21,22,24)          0.4394         calculate D2E/DX2 analytically  !
 ! D69   D(10,21,29,27)       -179.528          calculate D2E/DX2 analytically  !
 ! D70   D(10,21,29,30)         -1.2075         calculate D2E/DX2 analytically  !
 ! D71   D(22,21,29,27)          0.2374         calculate D2E/DX2 analytically  !
 ! D72   D(22,21,29,30)        178.5578         calculate D2E/DX2 analytically  !
 ! D73   D(21,22,24,25)        179.1502         calculate D2E/DX2 analytically  !
 ! D74   D(21,22,24,26)         -0.7065         calculate D2E/DX2 analytically  !
 ! D75   D(23,22,24,25)          0.6631         calculate D2E/DX2 analytically  !
 ! D76   D(23,22,24,26)       -179.1936         calculate D2E/DX2 analytically  !
 ! D77   D(22,24,26,27)          0.2946         calculate D2E/DX2 analytically  !
 ! D78   D(22,24,26,31)       -179.6526         calculate D2E/DX2 analytically  !
 ! D79   D(25,24,26,27)       -179.5613         calculate D2E/DX2 analytically  !
 ! D80   D(25,24,26,31)          0.4915         calculate D2E/DX2 analytically  !
 ! D81   D(24,26,27,28)       -179.4054         calculate D2E/DX2 analytically  !
 ! D82   D(24,26,27,29)          0.3839         calculate D2E/DX2 analytically  !
 ! D83   D(31,26,27,28)          0.5418         calculate D2E/DX2 analytically  !
 ! D84   D(31,26,27,29)       -179.6689         calculate D2E/DX2 analytically  !
 ! D85   D(26,27,29,21)         -0.6493         calculate D2E/DX2 analytically  !
 ! D86   D(26,27,29,30)       -178.9562         calculate D2E/DX2 analytically  !
 ! D87   D(28,27,29,21)        179.1411         calculate D2E/DX2 analytically  !
 ! D88   D(28,27,29,30)          0.8342         calculate D2E/DX2 analytically  !
 --------------------------------------------------------------------------------
 Trust Radius=3.00D-01 FncErr=5.00D-06 GrdErr=5.00D-06 EigMax=2.50D+02 EigMin=1.00D-04
 Number of steps in this run=    186 maximum allowed number of steps=    186.
 GradGradGradGradGradGradGradGradGradGradGradGradGradGradGradGradGradGrad

 Leave Link  103 at Tue Feb  1 12:09:41 2022, MaxMem= 11408506880 cpu:               0.2 elap:               0.0
 (Enter /lustre1/prg/gaussian/bin/G16_C01_Linda9.2_SSE4/g16/l202.exe)
                          Input orientation:                          
 ---------------------------------------------------------------------
 Center     Atomic      Atomic             Coordinates (Angstroms)
 Number     Number       Type             X           Y           Z
 ---------------------------------------------------------------------
      1          5           0       -0.004686   -0.107152    0.005226
      2          7           0        0.003548   -0.034800    1.560532
      3          6           0        1.091421    0.033991    2.332896
      4          1           0        2.083673    0.047162    1.887420
      5          6           0        0.720322    0.091400    3.692526
      6          1           0        1.402293    0.160633    4.533920
      7          6           0       -0.667171    0.061134    3.726743
      8          1           0       -1.310438    0.116342    4.600311
      9          6           0       -1.114442   -0.025116    2.382722
     10          6           0       -2.410750   -0.013491    1.843035
     11          7           0       -1.499087    0.044745   -0.408802
     12          6           0       -1.956852    0.070138   -1.663643
     13          1           0       -1.264713    0.083072   -2.502719
     14          6           0       -3.367211    0.060949   -1.668014
     15          1           0       -3.999396    0.076583   -2.550027
     16          6           0       -3.767823    0.019114   -0.339442
     17          1           0       -4.782894   -0.017180    0.045352
     18          6           0       -2.589001    0.018861    0.450605
     19          9           0        0.756717    0.926383   -0.527040
     20          9           0        0.477796   -1.341339   -0.421102
     21          6           0       -3.583787   -0.018728    2.744297
     22          6           0       -3.704225   -1.000408    3.738689
     23          1           0       -2.937387   -1.771143    3.827681
     24          6           0       -4.810726   -1.007863    4.584417
     25          1           0       -4.902855   -1.783062    5.345534
     26          6           0       -5.797590   -0.030121    4.456265
     27          6           0       -5.678943    0.953982    3.474528
     28          1           0       -6.442924    1.725709    3.377094
     29          6           0       -4.581809    0.958273    2.616723
     30          1           0       -4.478169    1.736484    1.859444
     31          1           0       -6.660297   -0.034554    5.123247
 ---------------------------------------------------------------------
                    Distance matrix (angstroms):
                    1          2          3          4          5
     1  B    0.000000
     2  N    1.557010   0.000000
     3  C    2.576707   1.335944   0.000000
     4  H    2.815619   2.107248   1.087744   0.000000
     5  C    3.763142   2.252796   1.410533   2.262541   0.000000
     6  H    4.749776   3.291765   2.226474   2.735163   1.085275
     7  C    3.783767   2.269700   2.244146   3.309146   1.388245
     8  H    4.782232   3.315066   3.304070   4.345636   2.224563
     9  C    2.625029   1.387801   2.207217   3.237049   2.257326
    10  C    3.029102   2.430863   3.536583   4.495051   3.638026
    11  N    1.558116   2.478410   3.771970   4.255445   4.663566
    12  C    2.574395   3.774849   5.026490   5.379258   5.988010
    13  H    2.813120   4.258214   5.379307   5.521440   6.505497
    14  C    3.759596   4.668479   5.990610   6.507952   6.741234
    15  H    4.745607   5.738699   7.054160   7.529643   7.825946
    16  C    3.780997   4.223274   5.545617   6.260967   6.033692
    17  H    4.779223   5.020568   6.304209   7.109648   6.602958
    18  C    2.625438   2.820661   4.133855   4.888673   4.633242
    19  F    1.389689   2.418490   3.014569   2.891965   4.301541
    20  F    1.392035   2.420502   3.138881   3.136248   4.362739
    21  C    4.507804   3.777636   4.693570   5.732249   4.408698
    22  C    5.331345   4.407306   5.103377   6.166390   4.557498
    23  H    5.097133   4.099262   4.660921   5.681715   4.106844
    24  C    6.699126   5.767839   6.402355   7.477941   5.709321
    25  H    7.437716   6.438591   6.950469   8.007487   6.153549
    26  C    7.305848   6.483710   7.209111   8.289707   6.563630
    27  C    6.734928   6.077152   6.927304   7.974926   6.460818
    28  H    7.495317   6.925048   7.792215   8.817001   7.354084
    29  C    5.376347   4.809078   5.755032   6.766879   5.479180
    30  H    5.181618   4.828311   5.843199   6.775866   5.752460
    31  H    8.396223   7.556439   8.238925   9.323855   7.519067
                    6          7          8          9         10
     6  H    0.000000
     7  C    2.223537   0.000000
     8  H    2.713905   1.086260   0.000000
     9  C    3.316038   1.419113   2.230723   0.000000
    10  C    4.670169   2.567877   2.971551   1.404212   0.000000
    11  N    5.732533   4.218422   5.013175   2.818765   2.430080
    12  C    7.049953   5.542528   6.297389   4.134223   3.536921
    13  H    7.525505   6.258094   7.103255   4.888949   4.495365
    14  C    7.824455   6.032712   6.597369   4.635821   3.639756
    15  H    8.908850   7.106462   7.639333   5.715358   4.672355
    16  C    7.106320   5.113675   5.518093   3.801653   2.570198
    17  H    7.644305   5.522495   5.729174   4.349816   2.976364
    18  C    5.711741   3.798460   4.343304   2.430912   1.404166
    19  F    5.159114   4.568455   5.587399   3.587938   4.066136
    20  F    5.259549   4.525759   5.526048   3.482685   3.902973
    21  C    5.300558   3.078673   2.937881   2.495685   1.479296
    22  C    5.296880   3.217252   2.778442   3.081691   2.498117
    23  H    4.802432   2.919128   2.608931   2.908547   2.702870
    24  C    6.322147   4.364334   3.676426   4.413136   3.776749
    25  H    6.647673   4.895157   4.131411   5.120615   4.648599
    26  C    7.202828   5.182830   4.491852   5.121668   4.277842
    27  C    7.203861   5.096925   4.588340   4.794303   3.778738
    28  H    8.083015   6.020996   5.516225   5.696217   4.651514
    29  C    6.334142   4.166701   3.917313   3.611709   2.501283
    30  H    6.649508   4.562599   4.491295   3.832977   2.708672
    31  H    8.086455   6.154424   5.377474   6.186039   5.368322
                   11         12         13         14         15
    11  N    0.000000
    12  C    1.335971   0.000000
    13  H    2.107342   1.087783   0.000000
    14  C    2.252946   1.410396   2.262238   0.000000
    15  H    3.292021   2.226590   2.735100   1.085288   0.000000
    16  C    2.269941   2.244043   3.308990   1.388288   2.223424
    17  H    3.315642   3.303756   4.345148   2.223935   2.712684
    18  C    1.388223   2.207326   3.237280   2.257416   3.316073
    19  F    2.424854   3.064062   2.949688   4.365499   5.237867
    20  F    2.414425   3.076311   3.065683   4.278467   5.156362
    21  C    3.780481   4.699441   5.737564   4.418342   5.311467
    22  C    4.812137   5.777938   6.788249   5.520190   6.387095
    23  H    4.828452   5.874215   6.805139   5.808956   6.724367
    24  C    6.083352   6.953052   7.999490   6.505305   7.261857
    25  H    6.931010   7.825717   8.849498   7.412721   8.161765
    26  C    6.492427   7.225967   8.305856   6.589524   7.234156
    27  C    5.777383   6.405930   7.481403   5.708533   6.315534
    28  H    6.449820   6.948006   8.005269   6.138774   6.619759
    29  C    4.414919   5.099090   6.162612   4.543062   5.273698
    30  H    4.108753   4.641755   5.664674   4.060124   4.735813
    31  H    7.566237   8.258040   9.342458   7.548163   8.122308
                   16         17         18         19         20
    16  C    0.000000
    17  H    1.086164   0.000000
    18  C    1.419083   2.231299   0.000000
    19  F    4.618419   5.648472   3.601835   0.000000
    20  F    4.459011   5.444799   3.466304   2.287265   0.000000
    21  C    3.089457   2.953331   2.500407   5.516779   5.316531
    22  C    4.204120   3.971272   3.618581   6.465986   5.908417
    23  H    4.610809   4.559418   3.837985   6.315588   5.468122
    24  C    5.136800   4.646002   4.804022   7.801585   7.289368
    25  H    6.070839   5.587903   5.706240   8.594124   7.899406
    26  C    5.207800   4.526138   5.132519   8.288979   8.055338
    27  C    4.367233   3.674957   4.423381   7.578326   7.638708
    28  H    4.886847   4.110215   5.131315   8.228974   8.469324
    29  C    3.206790   2.757516   3.089635   6.195492   6.333735
    30  H    2.879071   2.541481   2.916164   5.809957   6.263823
    31  H    6.181445   5.413868   6.197732   9.373433   9.132353
                   21         22         23         24         25
    21  C    0.000000
    22  C    1.402504   0.000000
    23  H    2.159285   1.090868   0.000000
    24  C    2.422769   1.392715   2.159779   0.000000
    25  H    3.408702   2.152025   2.483361   1.090285   0.000000
    26  C    2.798551   2.416309   3.406910   1.395100   2.159665
    27  C    2.422619   2.790866   3.881643   2.415469   3.405053
    28  H    3.408542   3.881100   4.971900   3.405013   4.307905
    29  C    1.402446   2.421857   3.408849   2.791042   3.881288
    30  H    2.159549   3.408978   4.307135   3.881689   4.971960
    31  H    3.889032   3.404150   4.307469   2.158375   2.489035
                   26         27         28         29         30
    26  C    0.000000
    27  C    1.395114   0.000000
    28  H    2.159631   1.090286   0.000000
    29  C    2.416394   1.392678   2.151946   0.000000
    30  H    3.406647   2.159320   2.482668   1.090791   0.000000
    31  H    1.090481   2.158364   2.488941   3.404186   4.307049
                   31
    31  H    0.000000
 Symmetry turned off by external request.
 Stoichiometry    C15H11BF2N2
 Framework group  C1[X(C15H11BF2N2)]
 Deg. of freedom    87
 Full point group                 C1      NOp   1
 Rotational constants (GHZ):           0.5801125           0.2825441           0.2065986
 Leave Link  202 at Tue Feb  1 12:09:41 2022, MaxMem= 11408506880 cpu:               0.1 elap:               0.0
 (Enter /lustre1/prg/gaussian/bin/G16_C01_Linda9.2_SSE4/g16/l301.exe)
 Standard basis: CC-pVDZ (5D, 7F)
 Ernie: Thresh=  0.10000D-02 Tol=  0.10000D-05 Strict=F.
 Ernie:  40 primitive shells out of 495 were deleted.
   335 basis functions,   737 primitive gaussians,   355 cartesian basis functions
    69 alpha electrons       69 beta electrons
       nuclear repulsion energy      1470.3616980773 Hartrees.
 IExCor= 4336 DFT=T Ex+Corr=M062X ExCW=0 ScaHFX=  0.540000
 ScaDFX=  1.000000  1.000000  1.000000  1.000000 ScalE2=  1.000000  1.000000
 IRadAn=      5 IRanWt=     -1 IRanGd=            0 ICorTp=0 IEmpDi=  4
 NAtoms=   31 NActive=   31 NUniq=   31 SFac= 1.00D+00 NAtFMM=   60 NAOKFM=F Big=F
 Integral buffers will be    131072 words long.
 Raffenetti 2 integral format.
 Two-electron integral symmetry is turned off.
 Force inversion solution in PCM.
 ------------------------------------------------------------------------------
 Polarizable Continuum Model (PCM)
 =================================
 Model                : C-PCM.
 Atomic radii         : UFF (Universal Force Field).
 Polarization charges : Total charges.
 Charge compensation  : None.
 Solution method      : Matrix inversion.
 Cavity type          : Scaled VdW (van der Waals Surface) (Alpha=1.100).
 Cavity algorithm     : GePol (No added spheres)
                        Default sphere list used, NSphG=   31.
                        Lebedev-Laikov grids with approx.  5.0 points / Ang**2.
                        Smoothing algorithm: York/Karplus (Gamma=1.0000).
                        Polarization charges: spherical gaussians, with
                                              point-specific exponents (IZeta= 3).
                        Self-potential: point-specific (ISelfS= 7).
                        Self-field    : sphere-specific E.n sum rule (ISelfD= 2).
 1st derivatives      : Analytical E(r).r(x)/FMM algorithm (CHGder, D1EAlg=3).
                        Cavity 1st derivative terms included.
 2nd derivatives      : Analytical E(r).r(xy)/FMM algorithm (CHGder, D2EAlg=3).
                        Cavity 2nd derivative terms included.
 Solvent              : TetraHydroFuran, Eps=   7.425700 Eps(inf)=   1.974025
 ------------------------------------------------------------------------------
 GePol: Number of generator spheres                  =      31
 GePol: Total number of spheres                      =      31
 GePol: Number of exposed spheres                    =      31 (100.00%)
 GePol: Number of points                             =    2482
 GePol: Average weight of points                     =       0.13
 GePol: Minimum weight of points                     =   0.79D-11
 GePol: Maximum weight of points                     =    0.20577
 GePol: Number of points with low weight             =     149
 GePol: Fraction of low-weight points (<1% of avg)   =       6.00%
 GePol: Cavity surface area                          =    315.576 Ang**2
 GePol: Cavity volume                                =    347.017 Ang**3
 Leave Link  301 at Tue Feb  1 12:09:41 2022, MaxMem= 11408506880 cpu:               1.3 elap:               0.1
@@@@@@@@@@@@@@@@@@@@@@@@@@@@@@@@@@@@@@@@@@@@@@@@@@@@@@@@@@@
@    WARNING: REMOTE HOST IDENTIFICATION HAS CHANGED!     @
@@@@@@@@@@@@@@@@@@@@@@@@@@@@@@@@@@@@@@@@@@@@@@@@@@@@@@@@@@@
IT IS POSSIBLE THAT SOMEONE IS DOING SOMETHING NASTY!
Someone could be eavesdropping on you right now (man-in-the-middle attack)!
It is also possible that a host key has just been changed.
The fingerprint for the ECDSA key sent by the remote host is
SHA256:Ki/B3btCxo943N1v5zDKOfUYHONPxVQ2BEdbCqI5VQc.
Please contact your system administrator.
Add correct host key in /lustre2/home/toliste/.ssh/known_hosts to get rid of this message.
Offending ECDSA key in /lustre2/home/toliste/.ssh/known_hosts:75
Password authentication is disabled to avoid man-in-the-middle attacks.
Keyboard-interactive authentication is disabled to avoid man-in-the-middle attacks.
@@@@@@@@@@@@@@@@@@@@@@@@@@@@@@@@@@@@@@@@@@@@@@@@@@@@@@@@@@@
@    WARNING: REMOTE HOST IDENTIFICATION HAS CHANGED!     @
@@@@@@@@@@@@@@@@@@@@@@@@@@@@@@@@@@@@@@@@@@@@@@@@@@@@@@@@@@@
IT IS POSSIBLE THAT SOMEONE IS DOING SOMETHING NASTY!
Someone could be eavesdropping on you right now (man-in-the-middle attack)!
It is also possible that a host key has just been changed.
The fingerprint for the ECDSA key sent by the remote host is
SHA256:KZqoUv2lFt2Xik+CAHlyqXW42VGQuri4bjs+H5gS/9Y.
Please contact your system administrator.
Add correct host key in /lustre2/home/toliste/.ssh/known_hosts to get rid of this message.
Offending ECDSA key in /lustre2/home/toliste/.ssh/known_hosts:45
Password authentication is disabled to avoid man-in-the-middle attacks.
Keyboard-interactive authentication is disabled to avoid man-in-the-middle attacks.
@@@@@@@@@@@@@@@@@@@@@@@@@@@@@@@@@@@@@@@@@@@@@@@@@@@@@@@@@@@
@    WARNING: REMOTE HOST IDENTIFICATION HAS CHANGED!     @
@@@@@@@@@@@@@@@@@@@@@@@@@@@@@@@@@@@@@@@@@@@@@@@@@@@@@@@@@@@
IT IS POSSIBLE THAT SOMEONE IS DOING SOMETHING NASTY!
Someone could be eavesdropping on you right now (man-in-the-middle attack)!
It is also possible that a host key has just been changed.
The fingerprint for the ECDSA key sent by the remote host is
SHA256:GrKekbUI0EXjIn2+8KWdVGCxz/8JpOOEF1MyBm+WVPs.
Please contact your system administrator.
Add correct host key in /lustre2/home/toliste/.ssh/known_hosts to get rid of this message.
Offending ECDSA key in /lustre2/home/toliste/.ssh/known_hosts:76
Password authentication is disabled to avoid man-in-the-middle attacks.
Keyboard-interactive authentication is disabled to avoid man-in-the-middle attacks.
@@@@@@@@@@@@@@@@@@@@@@@@@@@@@@@@@@@@@@@@@@@@@@@@@@@@@@@@@@@
@    WARNING: REMOTE HOST IDENTIFICATION HAS CHANGED!     @
@@@@@@@@@@@@@@@@@@@@@@@@@@@@@@@@@@@@@@@@@@@@@@@@@@@@@@@@@@@
IT IS POSSIBLE THAT SOMEONE IS DOING SOMETHING NASTY!
Someone could be eavesdropping on you right now (man-in-the-middle attack)!
It is also possible that a host key has just been changed.
The fingerprint for the ECDSA key sent by the remote host is
SHA256:Uz282wHl28wBm97/baJLdIpXIsVd0LwF1Owmw5BVe2Y.
Please contact your system administrator.
Add correct host key in /lustre2/home/toliste/.ssh/known_hosts to get rid of this message.
Offending ECDSA key in /lustre2/home/toliste/.ssh/known_hosts:29
Password authentication is disabled to avoid man-in-the-middle attacks.
Keyboard-interactive authentication is disabled to avoid man-in-the-middle attacks.
@@@@@@@@@@@@@@@@@@@@@@@@@@@@@@@@@@@@@@@@@@@@@@@@@@@@@@@@@@@
@    WARNING: REMOTE HOST IDENTIFICATION HAS CHANGED!     @
@@@@@@@@@@@@@@@@@@@@@@@@@@@@@@@@@@@@@@@@@@@@@@@@@@@@@@@@@@@
IT IS POSSIBLE THAT SOMEONE IS DOING SOMETHING NASTY!
Someone could be eavesdropping on you right now (man-in-the-middle attack)!
It is also possible that a host key has just been changed.
The fingerprint for the ECDSA key sent by the remote host is
SHA256:g4f0bu5h/BuHvHVRaPQeL16zD775+R/jZLDHY4hrQGs.
Please contact your system administrator.
Add correct host key in /lustre2/home/toliste/.ssh/known_hosts to get rid of this message.
Offending ECDSA key in /lustre2/home/toliste/.ssh/known_hosts:56
Password authentication is disabled to avoid man-in-the-middle attacks.
Keyboard-interactive authentication is disabled to avoid man-in-the-middle attacks.
@@@@@@@@@@@@@@@@@@@@@@@@@@@@@@@@@@@@@@@@@@@@@@@@@@@@@@@@@@@
@    WARNING: REMOTE HOST IDENTIFICATION HAS CHANGED!     @
@@@@@@@@@@@@@@@@@@@@@@@@@@@@@@@@@@@@@@@@@@@@@@@@@@@@@@@@@@@
IT IS POSSIBLE THAT SOMEONE IS DOING SOMETHING NASTY!
Someone could be eavesdropping on you right now (man-in-the-middle attack)!
It is also possible that a host key has just been changed.
The fingerprint for the ECDSA key sent by the remote host is
SHA256:nUIzJjT4Fam54Ejlek1Nrbwz39jnyir/zslU9lYj5R0.
Please contact your system administrator.
Add correct host key in /lustre2/home/toliste/.ssh/known_hosts to get rid of this message.
Offending ECDSA key in /lustre2/home/toliste/.ssh/known_hosts:185
Password authentication is disabled to avoid man-in-the-middle attacks.
Keyboard-interactive authentication is disabled to avoid man-in-the-middle attacks.
 (Enter /lustre1/prg/gaussian/bin/G16_C01_Linda9.2_SSE4/g16/linda-exe/l302.exel)
 NPDir=0 NMtPBC=     1 NCelOv=     1 NCel=       1 NClECP=     1 NCelD=      1
         NCelK=      1 NCelE2=     1 NClLst=     1 CellRange=     0.0.
 One-electron integrals computed using PRISM.
 NBasis=   335 RedAO= T EigKep=  2.50D-04  NBF=   335
 NBsUse=   335 1.00D-06 EigRej= -1.00D+00 NBFU=   335
 Precomputing XC quadrature grid using
 IXCGrd= 4 IRadAn=           5 IRanWt=          -1 IRanGd=           0 AccXCQ= 0.00D+00.
 Generated NRdTot=       0 NPtTot=           0 NUsed=           0 NTot=          32
 NSgBfM=   354   354   354   354   354 MxSgAt=    31 MxSgA2=    31.
 Leave Link  302 at Tue Feb  1 12:09:45 2022, MaxMem= 11408506880 cpu:              18.6 elap:               1.6
 (Enter /lustre1/prg/gaussian/bin/G16_C01_Linda9.2_SSE4/g16/l303.exe)
 DipDrv:  MaxL=1.
 Leave Link  303 at Tue Feb  1 12:09:46 2022, MaxMem= 11408506880 cpu:               1.5 elap:               0.3
@@@@@@@@@@@@@@@@@@@@@@@@@@@@@@@@@@@@@@@@@@@@@@@@@@@@@@@@@@@
@    WARNING: REMOTE HOST IDENTIFICATION HAS CHANGED!     @
@@@@@@@@@@@@@@@@@@@@@@@@@@@@@@@@@@@@@@@@@@@@@@@@@@@@@@@@@@@
IT IS POSSIBLE THAT SOMEONE IS DOING SOMETHING NASTY!
Someone could be eavesdropping on you right now (man-in-the-middle attack)!
It is also possible that a host key has just been changed.
The fingerprint for the ECDSA key sent by the remote host is
SHA256:KZqoUv2lFt2Xik+CAHlyqXW42VGQuri4bjs+H5gS/9Y.
Please contact your system administrator.
Add correct host key in /lustre2/home/toliste/.ssh/known_hosts to get rid of this message.
Offending ECDSA key in /lustre2/home/toliste/.ssh/known_hosts:45
Password authentication is disabled to avoid man-in-the-middle attacks.
Keyboard-interactive authentication is disabled to avoid man-in-the-middle attacks.
@@@@@@@@@@@@@@@@@@@@@@@@@@@@@@@@@@@@@@@@@@@@@@@@@@@@@@@@@@@
@    WARNING: REMOTE HOST IDENTIFICATION HAS CHANGED!     @
@@@@@@@@@@@@@@@@@@@@@@@@@@@@@@@@@@@@@@@@@@@@@@@@@@@@@@@@@@@
IT IS POSSIBLE THAT SOMEONE IS DOING SOMETHING NASTY!
Someone could be eavesdropping on you right now (man-in-the-middle attack)!
@@@@@@@@@@@@@@@@@@@@@@@@@@@@@@@@@@@@@@@@@@@@@@@@@@@@@@@@@@@
It is also possible that a host key has just been changed.
@    WARNING: REMOTE HOST IDENTIFICATION HAS CHANGED!     @
The fingerprint for the ECDSA key sent by the remote host is
SHA256:GrKekbUI0EXjIn2+8KWdVGCxz/8JpOOEF1MyBm+WVPs.
@@@@@@@@@@@@@@@@@@@@@@@@@@@@@@@@@@@@@@@@@@@@@@@@@@@@@@@@@@@
Please contact your system administrator.
IT IS POSSIBLE THAT SOMEONE IS DOING SOMETHING NASTY!
Add correct host key in /lustre2/home/toliste/.ssh/known_hosts to get rid of this message.
Someone could be eavesdropping on you right now (man-in-the-middle attack)!
It is also possible that a host key has just been changed.
Offending ECDSA key in /lustre2/home/toliste/.ssh/known_hosts:76
The fingerprint for the ECDSA key sent by the remote host is
SHA256:g4f0bu5h/BuHvHVRaPQeL16zD775+R/jZLDHY4hrQGs.
Password authentication is disabled to avoid man-in-the-middle attacks.
Please contact your system administrator.
Keyboard-interactive authentication is disabled to avoid man-in-the-middle attacks.
Add correct host key in /lustre2/home/toliste/.ssh/known_hosts to get rid of this message.
Offending ECDSA key in /lustre2/home/toliste/.ssh/known_hosts:56
Password authentication is disabled to avoid man-in-the-middle attacks.
Keyboard-interactive authentication is disabled to avoid man-in-the-middle attacks.
@@@@@@@@@@@@@@@@@@@@@@@@@@@@@@@@@@@@@@@@@@@@@@@@@@@@@@@@@@@
@    WARNING: REMOTE HOST IDENTIFICATION HAS CHANGED!     @
@@@@@@@@@@@@@@@@@@@@@@@@@@@@@@@@@@@@@@@@@@@@@@@@@@@@@@@@@@@
IT IS POSSIBLE THAT SOMEONE IS DOING SOMETHING NASTY!
Someone could be eavesdropping on you right now (man-in-the-middle attack)!
It is also possible that a host key has just been changed.
The fingerprint for the ECDSA key sent by the remote host is
SHA256:Ki/B3btCxo943N1v5zDKOfUYHONPxVQ2BEdbCqI5VQc.
Please contact your system administrator.
Add correct host key in /lustre2/home/toliste/.ssh/known_hosts to get rid of this message.
Offending ECDSA key in /lustre2/home/toliste/.ssh/known_hosts:75
Password authentication is disabled to avoid man-in-the-middle attacks.
Keyboard-interactive authentication is disabled to avoid man-in-the-middle attacks.
@@@@@@@@@@@@@@@@@@@@@@@@@@@@@@@@@@@@@@@@@@@@@@@@@@@@@@@@@@@
@    WARNING: REMOTE HOST IDENTIFICATION HAS CHANGED!     @
@@@@@@@@@@@@@@@@@@@@@@@@@@@@@@@@@@@@@@@@@@@@@@@@@@@@@@@@@@@
IT IS POSSIBLE THAT SOMEONE IS DOING SOMETHING NASTY!
Someone could be eavesdropping on you right now (man-in-the-middle attack)!
It is also possible that a host key has just been changed.
The fingerprint for the ECDSA key sent by the remote host is
SHA256:Uz282wHl28wBm97/baJLdIpXIsVd0LwF1Owmw5BVe2Y.
Please contact your system administrator.
Add correct host key in /lustre2/home/toliste/.ssh/known_hosts to get rid of this message.
Offending ECDSA key in /lustre2/home/toliste/.ssh/known_hosts:29
Password authentication is disabled to avoid man-in-the-middle attacks.
Keyboard-interactive authentication is disabled to avoid man-in-the-middle attacks.
@@@@@@@@@@@@@@@@@@@@@@@@@@@@@@@@@@@@@@@@@@@@@@@@@@@@@@@@@@@
@    WARNING: REMOTE HOST IDENTIFICATION HAS CHANGED!     @
@@@@@@@@@@@@@@@@@@@@@@@@@@@@@@@@@@@@@@@@@@@@@@@@@@@@@@@@@@@
IT IS POSSIBLE THAT SOMEONE IS DOING SOMETHING NASTY!
Someone could be eavesdropping on you right now (man-in-the-middle attack)!
It is also possible that a host key has just been changed.
The fingerprint for the ECDSA key sent by the remote host is
SHA256:nUIzJjT4Fam54Ejlek1Nrbwz39jnyir/zslU9lYj5R0.
Please contact your system administrator.
Add correct host key in /lustre2/home/toliste/.ssh/known_hosts to get rid of this message.
Offending ECDSA key in /lustre2/home/toliste/.ssh/known_hosts:185
Password authentication is disabled to avoid man-in-the-middle attacks.
Keyboard-interactive authentication is disabled to avoid man-in-the-middle attacks.
 (Enter /lustre1/prg/gaussian/bin/G16_C01_Linda9.2_SSE4/g16/linda-exe/l401.exel)
 ExpMin= 9.54D-02 ExpMax= 1.47D+04 ExpMxC= 5.03D+02 IAcc=3 IRadAn=         5 AccDes= 0.00D+00
 Harris functional with IExCor= 1009 and IRadAn=       5 diagonalized for initial guess.
 HarFok:  IExCor= 1009 AccDes= 0.00D+00 IRadAn=         5 IDoV= 1 UseB2=F ITyADJ=14
 ICtDFT=  3500011 ScaDFX=  1.000000  1.000000  1.000000  1.000000
 FoFCou: FMM=F IPFlag=           0 FMFlag=      100000 FMFlg1=           0
         NFxFlg=           0 DoJE=T BraDBF=F KetDBF=T FulRan=T
         wScrn=  0.000000 ICntrl=       500 IOpCl=  0 I1Cent=   200000004 NGrid=           0
         NMat0=    1 NMatS0=      1 NMatT0=    0 NMatD0=    1 NMtDS0=    0 NMtDT0=    0
 Symmetry not used in FoFCou.
 Harris En= -911.580627043332    
 JPrj=0 DoOrth=F DoCkMO=F.
 Leave Link  401 at Tue Feb  1 12:09:52 2022, MaxMem= 11408506880 cpu:              37.5 elap:               3.3
@@@@@@@@@@@@@@@@@@@@@@@@@@@@@@@@@@@@@@@@@@@@@@@@@@@@@@@@@@@
@    WARNING: REMOTE HOST IDENTIFICATION HAS CHANGED!     @
@@@@@@@@@@@@@@@@@@@@@@@@@@@@@@@@@@@@@@@@@@@@@@@@@@@@@@@@@@@
IT IS POSSIBLE THAT SOMEONE IS DOING SOMETHING NASTY!
Someone could be eavesdropping on you right now (man-in-the-middle attack)!
It is also possible that a host key has just been changed.
The fingerprint for the ECDSA key sent by the remote host is
SHA256:Ki/B3btCxo943N1v5zDKOfUYHONPxVQ2BEdbCqI5VQc.
Please contact your system administrator.
Add correct host key in /lustre2/home/toliste/.ssh/known_hosts to get rid of this message.
Offending ECDSA key in /lustre2/home/toliste/.ssh/known_hosts:75
Password authentication is disabled to avoid man-in-the-middle attacks.
Keyboard-interactive authentication is disabled to avoid man-in-the-middle attacks.
@@@@@@@@@@@@@@@@@@@@@@@@@@@@@@@@@@@@@@@@@@@@@@@@@@@@@@@@@@@
@    WARNING: REMOTE HOST IDENTIFICATION HAS CHANGED!     @
@@@@@@@@@@@@@@@@@@@@@@@@@@@@@@@@@@@@@@@@@@@@@@@@@@@@@@@@@@@
IT IS POSSIBLE THAT SOMEONE IS DOING SOMETHING NASTY!
Someone could be eavesdropping on you right now (man-in-the-middle attack)!
It is also possible that a host key has just been changed.
The fingerprint for the ECDSA key sent by the remote host is
SHA256:g4f0bu5h/BuHvHVRaPQeL16zD775+R/jZLDHY4hrQGs.
Please contact your system administrator.
Add correct host key in /lustre2/home/toliste/.ssh/known_hosts to get rid of this message.
Offending ECDSA key in /lustre2/home/toliste/.ssh/known_hosts:56
Password authentication is disabled to avoid man-in-the-middle attacks.
Keyboard-interactive authentication is disabled to avoid man-in-the-middle attacks.
@@@@@@@@@@@@@@@@@@@@@@@@@@@@@@@@@@@@@@@@@@@@@@@@@@@@@@@@@@@
@    WARNING: REMOTE HOST IDENTIFICATION HAS CHANGED!     @
@@@@@@@@@@@@@@@@@@@@@@@@@@@@@@@@@@@@@@@@@@@@@@@@@@@@@@@@@@@
IT IS POSSIBLE THAT SOMEONE IS DOING SOMETHING NASTY!
Someone could be eavesdropping on you right now (man-in-the-middle attack)!
It is also possible that a host key has just been changed.
The fingerprint for the ECDSA key sent by the remote host is
SHA256:Uz282wHl28wBm97/baJLdIpXIsVd0LwF1Owmw5BVe2Y.
Please contact your system administrator.
Add correct host key in /lustre2/home/toliste/.ssh/known_hosts to get rid of this message.
Offending ECDSA key in /lustre2/home/toliste/.ssh/known_hosts:29
Password authentication is disabled to avoid man-in-the-middle attacks.
Keyboard-interactive authentication is disabled to avoid man-in-the-middle attacks.
@@@@@@@@@@@@@@@@@@@@@@@@@@@@@@@@@@@@@@@@@@@@@@@@@@@@@@@@@@@
@    WARNING: REMOTE HOST IDENTIFICATION HAS CHANGED!     @
@@@@@@@@@@@@@@@@@@@@@@@@@@@@@@@@@@@@@@@@@@@@@@@@@@@@@@@@@@@
IT IS POSSIBLE THAT SOMEONE IS DOING SOMETHING NASTY!
Someone could be eavesdropping on you right now (man-in-the-middle attack)!
It is also possible that a host key has just been changed.
The fingerprint for the ECDSA key sent by the remote host is
SHA256:nUIzJjT4Fam54Ejlek1Nrbwz39jnyir/zslU9lYj5R0.
Please contact your system administrator.
Add correct host key in /lustre2/home/toliste/.ssh/known_hosts to get rid of this message.
Offending ECDSA key in /lustre2/home/toliste/.ssh/known_hosts:185
Password authentication is disabled to avoid man-in-the-middle attacks.
Keyboard-interactive authentication is disabled to avoid man-in-the-middle attacks.
@@@@@@@@@@@@@@@@@@@@@@@@@@@@@@@@@@@@@@@@@@@@@@@@@@@@@@@@@@@
@    WARNING: REMOTE HOST IDENTIFICATION HAS CHANGED!     @
@@@@@@@@@@@@@@@@@@@@@@@@@@@@@@@@@@@@@@@@@@@@@@@@@@@@@@@@@@@
IT IS POSSIBLE THAT SOMEONE IS DOING SOMETHING NASTY!
Someone could be eavesdropping on you right now (man-in-the-middle attack)!
It is also possible that a host key has just been changed.
The fingerprint for the ECDSA key sent by the remote host is
SHA256:GrKekbUI0EXjIn2+8KWdVGCxz/8JpOOEF1MyBm+WVPs.
Please contact your system administrator.
Add correct host key in /lustre2/home/toliste/.ssh/known_hosts to get rid of this message.
Offending ECDSA key in /lustre2/home/toliste/.ssh/known_hosts:76
Password authentication is disabled to avoid man-in-the-middle attacks.
Keyboard-interactive authentication is disabled to avoid man-in-the-middle attacks.
@@@@@@@@@@@@@@@@@@@@@@@@@@@@@@@@@@@@@@@@@@@@@@@@@@@@@@@@@@@
@    WARNING: REMOTE HOST IDENTIFICATION HAS CHANGED!     @
@@@@@@@@@@@@@@@@@@@@@@@@@@@@@@@@@@@@@@@@@@@@@@@@@@@@@@@@@@@
IT IS POSSIBLE THAT SOMEONE IS DOING SOMETHING NASTY!
Someone could be eavesdropping on you right now (man-in-the-middle attack)!
It is also possible that a host key has just been changed.
The fingerprint for the ECDSA key sent by the remote host is
SHA256:KZqoUv2lFt2Xik+CAHlyqXW42VGQuri4bjs+H5gS/9Y.
Please contact your system administrator.
Add correct host key in /lustre2/home/toliste/.ssh/known_hosts to get rid of this message.
Offending ECDSA key in /lustre2/home/toliste/.ssh/known_hosts:45
Password authentication is disabled to avoid man-in-the-middle attacks.
Keyboard-interactive authentication is disabled to avoid man-in-the-middle attacks.
 (Enter /lustre1/prg/gaussian/bin/G16_C01_Linda9.2_SSE4/g16/linda-exe/l502.exel)
 Two-electron integral symmetry not used.
 Closed shell SCF:
 Using DIIS extrapolation, IDIIS=  1040.
 NGot= 11408506880 LenX= 11408246955 LenY= 11408120489
 Requested convergence on RMS density matrix=1.00D-08 within 128 cycles.
 Requested convergence on MAX density matrix=1.00D-06.
 Requested convergence on             energy=1.00D-06.
 No special actions if energy rises.
 Fock matrices will be formed incrementally for  20 cycles.

 Cycle   1  Pass 1  IDiag  1:
 FoFJK:  IHMeth= 1 ICntrl=       0 DoSepK=F KAlg= 0 I1Cent=           0 FoldK=F
 IRaf= 870000000 NMat=       1 IRICut=       1 DoRegI=T DoRafI=F ISym2E= 0 IDoP0=0 IntGTp=1.
 FoFCou: FMM=F IPFlag=           0 FMFlag=      100000 FMFlg1=           0
         NFxFlg=           0 DoJE=F BraDBF=F KetDBF=F FulRan=T
         wScrn=  0.000000 ICntrl=         0 IOpCl=  0 I1Cent=           0 NGrid=           0
         NMat0=    1 NMatS0=      1 NMatT0=    0 NMatD0=    1 NMtDS0=    0 NMtDT0=    0
 Symmetry not used in FoFCou.
 Inv3:  Mode=1 IEnd=    18480972.
 Iteration    1 A*A^-1 deviation from unit magnitude is 8.66D-15 for    618.
 Iteration    1 A*A^-1 deviation from orthogonality  is 3.47D-15 for   2458   1193.
 Iteration    1 A^-1*A deviation from unit magnitude is 8.66D-15 for    618.
 Iteration    1 A^-1*A deviation from orthogonality  is 1.74D-15 for   1469    413.
 E= -911.875919226671    
 DIIS: error= 2.44D-02 at cycle   1 NSaved=   1.
 NSaved= 1 IEnMin= 1 EnMin= -911.875919226671     IErMin= 1 ErrMin= 2.44D-02
 ErrMax= 2.44D-02  0.00D+00 EMaxC= 1.00D-01 BMatC= 3.32D-01 BMatP= 3.32D-01
 IDIUse=3 WtCom= 7.56D-01 WtEn= 2.44D-01
 Coeff-Com:  0.100D+01
 Coeff-En:   0.100D+01
 Coeff:      0.100D+01
 Gap=     0.177 Goal=   None    Shift=    0.000
 GapD=    0.177 DampG=1.000 DampE=0.500 DampFc=0.5000 IDamp=-1.
 Damping current iteration by 5.00D-01
 RMSDP=3.58D-03 MaxDP=9.70D-02              OVMax= 1.45D-01

 Cycle   2  Pass 1  IDiag  1:
 RMSU=  1.72D-03    CP:  9.74D-01
 E= -912.036571889607     Delta-E=       -0.160652662936 Rises=F Damp=T
 DIIS: error= 7.64D-03 at cycle   2 NSaved=   2.
 NSaved= 2 IEnMin= 2 EnMin= -912.036571889607     IErMin= 2 ErrMin= 7.64D-03
 ErrMax= 7.64D-03  0.00D+00 EMaxC= 1.00D-01 BMatC= 2.85D-02 BMatP= 3.32D-01
 IDIUse=3 WtCom= 9.24D-01 WtEn= 7.64D-02
 Coeff-Com: -0.106D+00 0.111D+01
 Coeff-En:   0.000D+00 0.100D+01
 Coeff:     -0.983D-01 0.110D+01
 Gap=     0.186 Goal=   None    Shift=    0.000
 RMSDP=1.25D-03 MaxDP=6.22D-02 DE=-1.61D-01 OVMax= 8.62D-02

 Cycle   3  Pass 1  IDiag  1:
 RMSU=  1.00D-03    CP:  9.54D-01  1.38D+00
 E= -912.179783404644     Delta-E=       -0.143211515037 Rises=F Damp=F
 DIIS: error= 5.76D-03 at cycle   3 NSaved=   3.
 NSaved= 3 IEnMin= 3 EnMin= -912.179783404644     IErMin= 3 ErrMin= 5.76D-03
 ErrMax= 5.76D-03  0.00D+00 EMaxC= 1.00D-01 BMatC= 1.32D-02 BMatP= 2.85D-02
 IDIUse=3 WtCom= 9.42D-01 WtEn= 5.76D-02
 Coeff-Com: -0.109D+00 0.470D+00 0.639D+00
 Coeff-En:   0.000D+00 0.000D+00 0.100D+01
 Coeff:     -0.103D+00 0.443D+00 0.660D+00
 Gap=     0.177 Goal=   None    Shift=    0.000
 RMSDP=4.44D-04 MaxDP=2.07D-02 DE=-1.43D-01 OVMax= 4.59D-02

 Cycle   4  Pass 1  IDiag  1:
 RMSU=  3.24D-04    CP:  9.56D-01  1.42D+00  7.04D-01
 E= -912.189808058364     Delta-E=       -0.010024653720 Rises=F Damp=F
 DIIS: error= 2.61D-03 at cycle   4 NSaved=   4.
 NSaved= 4 IEnMin= 4 EnMin= -912.189808058364     IErMin= 4 ErrMin= 2.61D-03
 ErrMax= 2.61D-03  0.00D+00 EMaxC= 1.00D-01 BMatC= 2.70D-03 BMatP= 1.32D-02
 IDIUse=3 WtCom= 9.74D-01 WtEn= 2.61D-02
 Coeff-Com: -0.359D-01 0.959D-01 0.348D+00 0.592D+00
 Coeff-En:   0.000D+00 0.000D+00 0.170D+00 0.830D+00
 Coeff:     -0.350D-01 0.934D-01 0.344D+00 0.598D+00
 Gap=     0.180 Goal=   None    Shift=    0.000
 RMSDP=1.58D-04 MaxDP=7.99D-03 DE=-1.00D-02 OVMax= 1.91D-02

 Cycle   5  Pass 1  IDiag  1:
 RMSU=  6.53D-05    CP:  9.55D-01  1.42D+00  7.91D-01  6.49D-01
 E= -912.192464755914     Delta-E=       -0.002656697550 Rises=F Damp=F
 DIIS: error= 3.36D-04 at cycle   5 NSaved=   5.
 NSaved= 5 IEnMin= 5 EnMin= -912.192464755914     IErMin= 5 ErrMin= 3.36D-04
 ErrMax= 3.36D-04  0.00D+00 EMaxC= 1.00D-01 BMatC= 8.85D-05 BMatP= 2.70D-03
 IDIUse=3 WtCom= 9.97D-01 WtEn= 3.36D-03
 Coeff-Com: -0.845D-02 0.136D-01 0.105D+00 0.248D+00 0.642D+00
 Coeff-En:   0.000D+00 0.000D+00 0.000D+00 0.000D+00 0.100D+01
 Coeff:     -0.842D-02 0.135D-01 0.104D+00 0.248D+00 0.643D+00
 Gap=     0.180 Goal=   None    Shift=    0.000
 RMSDP=2.83D-05 MaxDP=1.81D-03 DE=-2.66D-03 OVMax= 3.09D-03

 Cycle   6  Pass 1  IDiag  1:
 RMSU=  1.88D-05    CP:  9.55D-01  1.42D+00  7.94D-01  6.85D-01  7.44D-01
 E= -912.192544736692     Delta-E=       -0.000079980778 Rises=F Damp=F
 DIIS: error= 1.15D-04 at cycle   6 NSaved=   6.
 NSaved= 6 IEnMin= 6 EnMin= -912.192544736692     IErMin= 6 ErrMin= 1.15D-04
 ErrMax= 1.15D-04  0.00D+00 EMaxC= 1.00D-01 BMatC= 5.68D-06 BMatP= 8.85D-05
 IDIUse=3 WtCom= 9.99D-01 WtEn= 1.15D-03
 Coeff-Com: -0.153D-02 0.408D-03 0.226D-01 0.671D-01 0.267D+00 0.645D+00
 Coeff-En:   0.000D+00 0.000D+00 0.000D+00 0.000D+00 0.000D+00 0.100D+01
 Coeff:     -0.153D-02 0.407D-03 0.226D-01 0.671D-01 0.266D+00 0.645D+00
 Gap=     0.180 Goal=   None    Shift=    0.000
 RMSDP=7.42D-06 MaxDP=3.11D-04 DE=-8.00D-05 OVMax= 6.57D-04

 Cycle   7  Pass 1  IDiag  1:
 RMSU=  6.08D-06    CP:  9.55D-01  1.42D+00  7.95D-01  6.85D-01  7.89D-01
                    CP:  8.51D-01
 E= -912.192550053204     Delta-E=       -0.000005316511 Rises=F Damp=F
 DIIS: error= 3.72D-05 at cycle   7 NSaved=   7.
 NSaved= 7 IEnMin= 7 EnMin= -912.192550053204     IErMin= 7 ErrMin= 3.72D-05
 ErrMax= 3.72D-05  0.00D+00 EMaxC= 1.00D-01 BMatC= 4.13D-07 BMatP= 5.68D-06
 IDIUse=1 WtCom= 1.00D+00 WtEn= 0.00D+00
 Coeff-Com:  0.308D-03-0.127D-02-0.277D-02-0.131D-02 0.320D-01 0.203D+00
 Coeff-Com:  0.770D+00
 Coeff:      0.308D-03-0.127D-02-0.277D-02-0.131D-02 0.320D-01 0.203D+00
 Coeff:      0.770D+00
 Gap=     0.180 Goal=   None    Shift=    0.000
 RMSDP=3.22D-06 MaxDP=1.27D-04 DE=-5.32D-06 OVMax= 3.84D-04

 Cycle   8  Pass 1  IDiag  1:
 RMSU=  2.42D-06    CP:  9.55D-01  1.42D+00  7.95D-01  6.88D-01  7.93D-01
                    CP:  9.43D-01  9.63D-01
 E= -912.192550481931     Delta-E=       -0.000000428727 Rises=F Damp=F
 DIIS: error= 2.06D-05 at cycle   8 NSaved=   8.
 NSaved= 8 IEnMin= 8 EnMin= -912.192550481931     IErMin= 8 ErrMin= 2.06D-05
 ErrMax= 2.06D-05  0.00D+00 EMaxC= 1.00D-01 BMatC= 1.47D-07 BMatP= 4.13D-07
 IDIUse=1 WtCom= 1.00D+00 WtEn= 0.00D+00
 Coeff-Com:  0.456D-03-0.780D-03-0.552D-02-0.127D-01-0.302D-01-0.178D-01
 Coeff-Com:  0.414D+00 0.653D+00
 Coeff:      0.456D-03-0.780D-03-0.552D-02-0.127D-01-0.302D-01-0.178D-01
 Coeff:      0.414D+00 0.653D+00
 Gap=     0.180 Goal=   None    Shift=    0.000
 RMSDP=1.41D-06 MaxDP=8.96D-05 DE=-4.29D-07 OVMax= 1.78D-04

 Cycle   9  Pass 1  IDiag  1:
 RMSU=  7.83D-07    CP:  9.55D-01  1.42D+00  7.95D-01  6.88D-01  8.02D-01
                    CP:  9.62D-01  1.07D+00  7.33D-01
 E= -912.192550653325     Delta-E=       -0.000000171394 Rises=F Damp=F
 DIIS: error= 2.59D-06 at cycle   9 NSaved=   9.
 NSaved= 9 IEnMin= 9 EnMin= -912.192550653325     IErMin= 9 ErrMin= 2.59D-06
 ErrMax= 2.59D-06  0.00D+00 EMaxC= 1.00D-01 BMatC= 4.05D-09 BMatP= 1.47D-07
 IDIUse=1 WtCom= 1.00D+00 WtEn= 0.00D+00
 Coeff-Com:  0.105D-03-0.128D-03-0.131D-02-0.335D-02-0.999D-02-0.184D-01
 Coeff-Com:  0.693D-01 0.185D+00 0.779D+00
 Coeff:      0.105D-03-0.128D-03-0.131D-02-0.335D-02-0.999D-02-0.184D-01
 Coeff:      0.693D-01 0.185D+00 0.779D+00
 Gap=     0.180 Goal=   None    Shift=    0.000
 RMSDP=3.20D-07 MaxDP=1.14D-05 DE=-1.71D-07 OVMax= 3.57D-05

 Cycle  10  Pass 1  IDiag  1:
 RMSU=  2.30D-07    CP:  9.55D-01  1.42D+00  7.95D-01  6.88D-01  8.02D-01
                    CP:  9.66D-01  1.09D+00  7.97D-01  9.74D-01
 E= -912.192550659235     Delta-E=       -0.000000005910 Rises=F Damp=F
 DIIS: error= 1.07D-06 at cycle  10 NSaved=  10.
 NSaved=10 IEnMin=10 EnMin= -912.192550659235     IErMin=10 ErrMin= 1.07D-06
 ErrMax= 1.07D-06  0.00D+00 EMaxC= 1.00D-01 BMatC= 8.39D-10 BMatP= 4.05D-09
 IDIUse=1 WtCom= 1.00D+00 WtEn= 0.00D+00
 Coeff-Com: -0.128D-04 0.413D-04 0.131D-03 0.191D-03-0.473D-03-0.605D-02
 Coeff-Com: -0.228D-01-0.113D-01 0.304D+00 0.736D+00
 Coeff:     -0.128D-04 0.413D-04 0.131D-03 0.191D-03-0.473D-03-0.605D-02
 Coeff:     -0.228D-01-0.113D-01 0.304D+00 0.736D+00
 Gap=     0.180 Goal=   None    Shift=    0.000
 RMSDP=1.25D-07 MaxDP=5.62D-06 DE=-5.91D-09 OVMax= 1.55D-05

 Cycle  11  Pass 1  IDiag  1:
 RMSU=  8.65D-08    CP:  9.55D-01  1.42D+00  7.95D-01  6.88D-01  8.02D-01
                    CP:  9.68D-01  1.09D+00  8.09D-01  1.06D+00  9.23D-01
 E= -912.192550660256     Delta-E=       -0.000000001021 Rises=F Damp=F
 DIIS: error= 4.02D-07 at cycle  11 NSaved=  11.
 NSaved=11 IEnMin=11 EnMin= -912.192550660256     IErMin=11 ErrMin= 4.02D-07
 ErrMax= 4.02D-07  0.00D+00 EMaxC= 1.00D-01 BMatC= 9.71D-11 BMatP= 8.39D-10
 IDIUse=1 WtCom= 1.00D+00 WtEn= 0.00D+00
 Coeff-Com: -0.204D-04 0.348D-04 0.239D-03 0.573D-03 0.126D-02 0.145D-03
 Coeff-Com: -0.185D-01-0.336D-01 0.136D-01 0.288D+00 0.748D+00
 Coeff:     -0.204D-04 0.348D-04 0.239D-03 0.573D-03 0.126D-02 0.145D-03
 Coeff:     -0.185D-01-0.336D-01 0.136D-01 0.288D+00 0.748D+00
 Gap=     0.180 Goal=   None    Shift=    0.000
 RMSDP=4.56D-08 MaxDP=1.57D-06 DE=-1.02D-09 OVMax= 4.71D-06

 Cycle  12  Pass 1  IDiag  1:
 RMSU=  2.67D-08    CP:  9.55D-01  1.42D+00  7.95D-01  6.89D-01  8.02D-01
                    CP:  9.69D-01  1.10D+00  8.10D-01  1.09D+00  1.03D+00
                    CP:  9.18D-01
 E= -912.192550660439     Delta-E=       -0.000000000183 Rises=F Damp=F
 DIIS: error= 8.46D-08 at cycle  12 NSaved=  12.
 NSaved=12 IEnMin=12 EnMin= -912.192550660439     IErMin=12 ErrMin= 8.46D-08
 ErrMax= 8.46D-08  0.00D+00 EMaxC= 1.00D-01 BMatC= 3.67D-12 BMatP= 9.71D-11
 IDIUse=1 WtCom= 1.00D+00 WtEn= 0.00D+00
 Coeff-Com: -0.437D-05 0.658D-05 0.497D-04 0.129D-03 0.324D-03 0.364D-03
 Coeff-Com: -0.262D-02-0.779D-02-0.106D-01 0.334D-01 0.182D+00 0.805D+00
 Coeff:     -0.437D-05 0.658D-05 0.497D-04 0.129D-03 0.324D-03 0.364D-03
 Coeff:     -0.262D-02-0.779D-02-0.106D-01 0.334D-01 0.182D+00 0.805D+00
 Gap=     0.180 Goal=   None    Shift=    0.000
 RMSDP=1.02D-08 MaxDP=3.01D-07 DE=-1.83D-10 OVMax= 1.50D-06

 Cycle  13  Pass 1  IDiag  1:
 RMSU=  7.90D-09    CP:  9.55D-01  1.42D+00  7.95D-01  6.89D-01  8.02D-01
                    CP:  9.69D-01  1.10D+00  8.10D-01  1.10D+00  1.04D+00
                    CP:  9.72D-01  1.03D+00
 E= -912.192550660415     Delta-E=        0.000000000025 Rises=F Damp=F
 DIIS: error= 3.80D-08 at cycle  13 NSaved=  13.
 NSaved=13 IEnMin=12 EnMin= -912.192550660439     IErMin=13 ErrMin= 3.80D-08
 ErrMax= 3.80D-08  0.00D+00 EMaxC= 1.00D-01 BMatC= 9.00D-13 BMatP= 3.67D-12
 IDIUse=1 WtCom= 1.00D+00 WtEn= 0.00D+00
 Coeff-Com:  0.407D-06-0.104D-05-0.587D-05-0.977D-05-0.118D-05 0.133D-03
 Coeff-Com:  0.983D-03 0.569D-04-0.644D-02-0.207D-01-0.203D-01 0.320D+00
 Coeff-Com:  0.727D+00
 Coeff:      0.407D-06-0.104D-05-0.587D-05-0.977D-05-0.118D-05 0.133D-03
 Coeff:      0.983D-03 0.569D-04-0.644D-02-0.207D-01-0.203D-01 0.320D+00
 Coeff:      0.727D+00
 Gap=     0.180 Goal=   None    Shift=    0.000
 RMSDP=4.29D-09 MaxDP=1.02D-07 DE= 2.46D-11 OVMax= 5.17D-07

 Error on total polarization charges =  0.00990
 SCF Done:  E(RM062X) =  -912.192550660     A.U. after   13 cycles
            NFock= 13  Conv=0.43D-08     -V/T= 2.0061
 KE= 9.066880705462D+02 PE=-5.070654238705D+03 EE= 1.781411919421D+03
 Leave Link  502 at Tue Feb  1 12:11:10 2022, MaxMem= 11408506880 cpu:             856.3 elap:              75.8
 (Enter /lustre1/prg/gaussian/bin/G16_C01_Linda9.2_SSE4/g16/l801.exe)
 DoSCS=F DFT=T ScalE2(SS,OS)=  1.000000  1.000000
 Range of M.O.s used for correlation:     1   335
 NBasis=   335 NAE=    69 NBE=    69 NFC=     0 NFV=     0
 NROrb=    335 NOA=    69 NOB=    69 NVA=   266 NVB=   266

 **** Warning!!: The largest alpha MO coefficient is  0.11577098D+02

 Leave Link  801 at Tue Feb  1 12:11:11 2022, MaxMem= 11408506880 cpu:               0.4 elap:               0.0
@@@@@@@@@@@@@@@@@@@@@@@@@@@@@@@@@@@@@@@@@@@@@@@@@@@@@@@@@@@
@@@@@@@@@@@@@@@@@@@@@@@@@@@@@@@@@@@@@@@@@@@@@@@@@@@@@@@@@@@
@    WARNING: REMOTE HOST IDENTIFICATION HAS CHANGED!     @
@    WARNING: REMOTE HOST IDENTIFICATION HAS CHANGED!     @
@@@@@@@@@@@@@@@@@@@@@@@@@@@@@@@@@@@@@@@@@@@@@@@@@@@@@@@@@@@
@@@@@@@@@@@@@@@@@@@@@@@@@@@@@@@@@@@@@@@@@@@@@@@@@@@@@@@@@@@
IT IS POSSIBLE THAT SOMEONE IS DOING SOMETHING NASTY!
IT IS POSSIBLE THAT SOMEONE IS DOING SOMETHING NASTY!
Someone could be eavesdropping on you right now (man-in-the-middle attack)!
It is also possible that a host key has just been changed.
Someone could be eavesdropping on you right now (man-in-the-middle attack)!
The fingerprint for the ECDSA key sent by the remote host is
SHA256:Uz282wHl28wBm97/baJLdIpXIsVd0LwF1Owmw5BVe2Y.
It is also possible that a host key has just been changed.
Please contact your system administrator.
Add correct host key in /lustre2/home/toliste/.ssh/known_hosts to get rid of this message.
The fingerprint for the ECDSA key sent by the remote host is
SHA256:GrKekbUI0EXjIn2+8KWdVGCxz/8JpOOEF1MyBm+WVPs.
Offending ECDSA key in /lustre2/home/toliste/.ssh/known_hosts:29
Please contact your system administrator.
Password authentication is disabled to avoid man-in-the-middle attacks.
Keyboard-interactive authentication is disabled to avoid man-in-the-middle attacks.
Add correct host key in /lustre2/home/toliste/.ssh/known_hosts to get rid of this message.
Offending ECDSA key in /lustre2/home/toliste/.ssh/known_hosts:76
Password authentication is disabled to avoid man-in-the-middle attacks.
Keyboard-interactive authentication is disabled to avoid man-in-the-middle attacks.
@@@@@@@@@@@@@@@@@@@@@@@@@@@@@@@@@@@@@@@@@@@@@@@@@@@@@@@@@@@
@    WARNING: REMOTE HOST IDENTIFICATION HAS CHANGED!     @
@@@@@@@@@@@@@@@@@@@@@@@@@@@@@@@@@@@@@@@@@@@@@@@@@@@@@@@@@@@
IT IS POSSIBLE THAT SOMEONE IS DOING SOMETHING NASTY!
Someone could be eavesdropping on you right now (man-in-the-middle attack)!
It is also possible that a host key has just been changed.
The fingerprint for the ECDSA key sent by the remote host is
SHA256:KZqoUv2lFt2Xik+CAHlyqXW42VGQuri4bjs+H5gS/9Y.
Please contact your system administrator.
Add correct host key in /lustre2/home/toliste/.ssh/known_hosts to get rid of this message.
Offending ECDSA key in /lustre2/home/toliste/.ssh/known_hosts:45
Password authentication is disabled to avoid man-in-the-middle attacks.
Keyboard-interactive authentication is disabled to avoid man-in-the-middle attacks.
@@@@@@@@@@@@@@@@@@@@@@@@@@@@@@@@@@@@@@@@@@@@@@@@@@@@@@@@@@@
@    WARNING: REMOTE HOST IDENTIFICATION HAS CHANGED!     @
@@@@@@@@@@@@@@@@@@@@@@@@@@@@@@@@@@@@@@@@@@@@@@@@@@@@@@@@@@@
IT IS POSSIBLE THAT SOMEONE IS DOING SOMETHING NASTY!
Someone could be eavesdropping on you right now (man-in-the-middle attack)!
It is also possible that a host key has just been changed.
The fingerprint for the ECDSA key sent by the remote host is
SHA256:Ki/B3btCxo943N1v5zDKOfUYHONPxVQ2BEdbCqI5VQc.
Please contact your system administrator.
Add correct host key in /lustre2/home/toliste/.ssh/known_hosts to get rid of this message.
Offending ECDSA key in /lustre2/home/toliste/.ssh/known_hosts:75
Password authentication is disabled to avoid man-in-the-middle attacks.
Keyboard-interactive authentication is disabled to avoid man-in-the-middle attacks.
@@@@@@@@@@@@@@@@@@@@@@@@@@@@@@@@@@@@@@@@@@@@@@@@@@@@@@@@@@@
@    WARNING: REMOTE HOST IDENTIFICATION HAS CHANGED!     @
@@@@@@@@@@@@@@@@@@@@@@@@@@@@@@@@@@@@@@@@@@@@@@@@@@@@@@@@@@@
IT IS POSSIBLE THAT SOMEONE IS DOING SOMETHING NASTY!
Someone could be eavesdropping on you right now (man-in-the-middle attack)!
It is also possible that a host key has just been changed.
The fingerprint for the ECDSA key sent by the remote host is
SHA256:g4f0bu5h/BuHvHVRaPQeL16zD775+R/jZLDHY4hrQGs.
Please contact your system administrator.
Add correct host key in /lustre2/home/toliste/.ssh/known_hosts to get rid of this message.
Offending ECDSA key in /lustre2/home/toliste/.ssh/known_hosts:56
Password authentication is disabled to avoid man-in-the-middle attacks.
Keyboard-interactive authentication is disabled to avoid man-in-the-middle attacks.
@@@@@@@@@@@@@@@@@@@@@@@@@@@@@@@@@@@@@@@@@@@@@@@@@@@@@@@@@@@
@    WARNING: REMOTE HOST IDENTIFICATION HAS CHANGED!     @
@@@@@@@@@@@@@@@@@@@@@@@@@@@@@@@@@@@@@@@@@@@@@@@@@@@@@@@@@@@
IT IS POSSIBLE THAT SOMEONE IS DOING SOMETHING NASTY!
Someone could be eavesdropping on you right now (man-in-the-middle attack)!
It is also possible that a host key has just been changed.
The fingerprint for the ECDSA key sent by the remote host is
SHA256:nUIzJjT4Fam54Ejlek1Nrbwz39jnyir/zslU9lYj5R0.
Please contact your system administrator.
Add correct host key in /lustre2/home/toliste/.ssh/known_hosts to get rid of this message.
Offending ECDSA key in /lustre2/home/toliste/.ssh/known_hosts:185
Password authentication is disabled to avoid man-in-the-middle attacks.
Keyboard-interactive authentication is disabled to avoid man-in-the-middle attacks.
 (Enter /lustre1/prg/gaussian/bin/G16_C01_Linda9.2_SSE4/g16/linda-exe/l1101.exel)
 Using compressed storage, NAtomX=    31.
 Will process     32 centers per pass.
 Leave Link 1101 at Tue Feb  1 12:11:18 2022, MaxMem= 11408506880 cpu:              53.2 elap:               4.8
 (Enter /lustre1/prg/gaussian/bin/G16_C01_Linda9.2_SSE4/g16/l1102.exe)
 Symmetrizing basis deriv contribution to polar:
 IMax=3 JMax=2 DiffMx= 0.00D+00
 Leave Link 1102 at Tue Feb  1 12:11:18 2022, MaxMem= 11408506880 cpu:               1.4 elap:               0.1
@@@@@@@@@@@@@@@@@@@@@@@@@@@@@@@@@@@@@@@@@@@@@@@@@@@@@@@@@@@
@    WARNING: REMOTE HOST IDENTIFICATION HAS CHANGED!     @
@@@@@@@@@@@@@@@@@@@@@@@@@@@@@@@@@@@@@@@@@@@@@@@@@@@@@@@@@@@
IT IS POSSIBLE THAT SOMEONE IS DOING SOMETHING NASTY!
Someone could be eavesdropping on you right now (man-in-the-middle attack)!
It is also possible that a host key has just been changed.
The fingerprint for the ECDSA key sent by the remote host is
SHA256:Uz282wHl28wBm97/baJLdIpXIsVd0LwF1Owmw5BVe2Y.
Please contact your system administrator.
Add correct host key in /lustre2/home/toliste/.ssh/known_hosts to get rid of this message.
Offending ECDSA key in /lustre2/home/toliste/.ssh/known_hosts:29
Password authentication is disabled to avoid man-in-the-middle attacks.
Keyboard-interactive authentication is disabled to avoid man-in-the-middle attacks.
@@@@@@@@@@@@@@@@@@@@@@@@@@@@@@@@@@@@@@@@@@@@@@@@@@@@@@@@@@@
@    WARNING: REMOTE HOST IDENTIFICATION HAS CHANGED!     @
@@@@@@@@@@@@@@@@@@@@@@@@@@@@@@@@@@@@@@@@@@@@@@@@@@@@@@@@@@@
IT IS POSSIBLE THAT SOMEONE IS DOING SOMETHING NASTY!
Someone could be eavesdropping on you right now (man-in-the-middle attack)!
It is also possible that a host key has just been changed.
The fingerprint for the ECDSA key sent by the remote host is
SHA256:KZqoUv2lFt2Xik+CAHlyqXW42VGQuri4bjs+H5gS/9Y.
Please contact your system administrator.
Add correct host key in /lustre2/home/toliste/.ssh/known_hosts to get rid of this message.
Offending ECDSA key in /lustre2/home/toliste/.ssh/known_hosts:45
Password authentication is disabled to avoid man-in-the-middle attacks.
Keyboard-interactive authentication is disabled to avoid man-in-the-middle attacks.
@@@@@@@@@@@@@@@@@@@@@@@@@@@@@@@@@@@@@@@@@@@@@@@@@@@@@@@@@@@
@    WARNING: REMOTE HOST IDENTIFICATION HAS CHANGED!     @
@@@@@@@@@@@@@@@@@@@@@@@@@@@@@@@@@@@@@@@@@@@@@@@@@@@@@@@@@@@
IT IS POSSIBLE THAT SOMEONE IS DOING SOMETHING NASTY!
Someone could be eavesdropping on you right now (man-in-the-middle attack)!
It is also possible that a host key has just been changed.
The fingerprint for the ECDSA key sent by the remote host is
SHA256:g4f0bu5h/BuHvHVRaPQeL16zD775+R/jZLDHY4hrQGs.
Please contact your system administrator.
Add correct host key in /lustre2/home/toliste/.ssh/known_hosts to get rid of this message.
Offending ECDSA key in /lustre2/home/toliste/.ssh/known_hosts:56
Password authentication is disabled to avoid man-in-the-middle attacks.
@@@@@@@@@@@@@@@@@@@@@@@@@@@@@@@@@@@@@@@@@@@@@@@@@@@@@@@@@@@
Keyboard-interactive authentication is disabled to avoid man-in-the-middle attacks.
@    WARNING: REMOTE HOST IDENTIFICATION HAS CHANGED!     @
@@@@@@@@@@@@@@@@@@@@@@@@@@@@@@@@@@@@@@@@@@@@@@@@@@@@@@@@@@@
IT IS POSSIBLE THAT SOMEONE IS DOING SOMETHING NASTY!
Someone could be eavesdropping on you right now (man-in-the-middle attack)!
It is also possible that a host key has just been changed.
The fingerprint for the ECDSA key sent by the remote host is
SHA256:GrKekbUI0EXjIn2+8KWdVGCxz/8JpOOEF1MyBm+WVPs.
Please contact your system administrator.
Add correct host key in /lustre2/home/toliste/.ssh/known_hosts to get rid of this message.
Offending ECDSA key in /lustre2/home/toliste/.ssh/known_hosts:76
Password authentication is disabled to avoid man-in-the-middle attacks.
Keyboard-interactive authentication is disabled to avoid man-in-the-middle attacks.
@@@@@@@@@@@@@@@@@@@@@@@@@@@@@@@@@@@@@@@@@@@@@@@@@@@@@@@@@@@
@    WARNING: REMOTE HOST IDENTIFICATION HAS CHANGED!     @
@@@@@@@@@@@@@@@@@@@@@@@@@@@@@@@@@@@@@@@@@@@@@@@@@@@@@@@@@@@
IT IS POSSIBLE THAT SOMEONE IS DOING SOMETHING NASTY!
Someone could be eavesdropping on you right now (man-in-the-middle attack)!
It is also possible that a host key has just been changed.
The fingerprint for the ECDSA key sent by the remote host is
SHA256:Ki/B3btCxo943N1v5zDKOfUYHONPxVQ2BEdbCqI5VQc.
Please contact your system administrator.
Add correct host key in /lustre2/home/toliste/.ssh/known_hosts to get rid of this message.
Offending ECDSA key in /lustre2/home/toliste/.ssh/known_hosts:75
Password authentication is disabled to avoid man-in-the-middle attacks.
Keyboard-interactive authentication is disabled to avoid man-in-the-middle attacks.
@@@@@@@@@@@@@@@@@@@@@@@@@@@@@@@@@@@@@@@@@@@@@@@@@@@@@@@@@@@
@    WARNING: REMOTE HOST IDENTIFICATION HAS CHANGED!     @
@@@@@@@@@@@@@@@@@@@@@@@@@@@@@@@@@@@@@@@@@@@@@@@@@@@@@@@@@@@
IT IS POSSIBLE THAT SOMEONE IS DOING SOMETHING NASTY!
Someone could be eavesdropping on you right now (man-in-the-middle attack)!
It is also possible that a host key has just been changed.
The fingerprint for the ECDSA key sent by the remote host is
SHA256:nUIzJjT4Fam54Ejlek1Nrbwz39jnyir/zslU9lYj5R0.
Please contact your system administrator.
Add correct host key in /lustre2/home/toliste/.ssh/known_hosts to get rid of this message.
Offending ECDSA key in /lustre2/home/toliste/.ssh/known_hosts:185
[...]
 .00000657,-0.00004396,-0.00004283,-0.00001424,-0.00007706,0.00001445,-
 0.00010014,-0.00000526,-0.00000136,-0.00000502,0.00012354,0.00003284,-
 0.00011333,-0.00000064,-0.00000046,-0.00000830,0.00004222,-0.00001949,
 0.00016873,0.00001211,-0.00003022,-0.00000243,0.00017349,-0.00000907,-
 0.00017415,0.00003854,0.00002688,-0.00003202,0.00003241,-0.00004332,-0
 .00002950,0.00552350,0.00165280,0.00197627,-0.00070308,0.01355977,-0.0
 0787065,-0.00170229,-0.00191530,-0.00122062,0.02286666,0.15131758,-0.1
 9346199,-0.02725010,-0.16512029,0.19674159,0.00023590,-0.00002871,-0.0
 0008472,-0.00009144,0.00011930,-0.00004126,-0.00005503,0.00003423,-0.0
 0008906,-0.00001450,-0.00006789,0.00000294,-0.00015540,0.00018816,0.00
 010219,-0.00001757,-0.00000814,-0.00000172,0.00009349,-0.00007956,0.00
 001905,-0.00003706,-0.00015450,0.00013100,0.00010248,-0.00025100,0.000
 25289,-0.00022795,0.00075830,-0.00096905,0.00008616,-0.00016071,0.0000
 2538,0.00005777,-0.00000776,0.00017992,0.00001590,0.00000929,0.0000000
 5,-0.00019230,0.00010557,0.00018235,0.00000287,0.00000498,0.00001977,-
 0.00046552,-0.00001096,-0.00044951,0.00006734,-0.00009463,-0.00000382,
 0.00006116,0.00002668,0.00040936,-0.00007829,-0.00004971,0.00003679,-0
 .00006469,0.00006798,0.00003147,-0.01214483,0.02067007,-0.01655289,-0.
 04219594,0.00891871,0.03032218,-0.00087354,0.00125110,0.00526960,-0.22
 800731,0.15522308,-0.01764530,0.00607557,-0.00429791,0.00208937,0.6015
 0703,-0.00010370,0.00001379,-0.00013113,0.00008500,0.00013173,-0.00012
 698,-0.00011998,-0.00008950,-0.00005364,0.00001678,0.00006437,-0.00003
 023,-0.00013749,-0.00033876,0.00005597,0.00000564,0.00000516,-0.000006
 95,0.00045685,0.00033031,0.00077881,0.00019675,0.00029846,-0.00036882,
 -0.00074243,0.00028851,-0.00028314,0.00046860,-0.00309960,0.00068338,-
 0.00014140,0.00013351,0.00007770,-0.00005470,-0.00008118,-0.00014723,-
 0.00003139,0.00006448,0.00001148,0.00009369,-0.00034666,-0.00015726,-0
 .00000650,0.00000519,0.00000314,0.00061470,0.00029332,0.00063261,-0.00
 038503,0.00032334,0.00012173,-0.00007276,0.00032485,-0.00077164,0.0000
 2387,-0.00000106,0.00002710,0.00002094,-0.00000111,0.00002851,0.022221
 04,-0.05362218,0.02841248,0.04629008,0.02933063,-0.05588548,0.00081219
 ,0.00356781,0.00281108,0.10399485,-0.21795059,0.05893243,0.01597417,-0
 .00927785,0.00039028,-0.15811090,0.49767317,-0.00007797,0.00001394,0.0
 0018612,-0.00001755,-0.00013177,0.00008907,0.00014838,0.00001190,0.000
 07293,-0.00000883,-0.00000728,0.00001642,0.00017931,0.00014775,-0.0001
 1621,0.00001298,0.00000391,0.00000787,-0.00031022,-0.00007274,-0.00059
 324,-0.00002341,-0.00012312,0.00010840,0.00042062,-0.00000168,0.000239
 17,-0.00090196,0.00096721,-0.00076014,0.00000886,0.00007857,-0.0001064
 1,-0.00003858,0.00003631,-0.00001684,0.00000868,-0.00006621,-0.0000171
 8,0.00008086,0.00022253,-0.00005357,0.00000320,-0.00000645,-0.00001239
 ,-0.00011552,-0.00008579,-0.00001756,0.00013616,-0.00018974,-0.0000122
 3,0.00022999,-0.00025936,0.00027720,0.00003618,0.00003782,-0.00005248,
 0.00002773,-0.00004961,-0.00005003,-0.01657558,0.02651525,-0.02056820,
 -0.00442448,-0.02664869,0.03501766,0.00559592,0.00269453,0.00110208,0.
 02819328,0.02081036,-0.10615312,-0.01601850,0.01533269,0.00208930,-0.2
 0767280,-0.20594755,0.49106619,0.00023344,-0.00002204,-0.00000595,-0.0
 0000852,-0.00047408,0.00008311,-0.00001110,0.00005498,-0.00010285,-0.0
 0001498,0.00003070,0.00001529,-0.00007348,0.00018567,0.00009626,-0.000
 01192,-0.00000468,0.00000227,-0.00012122,-0.00009471,-0.00039345,-0.00
 008717,-0.00018304,0.00024893,0.00008259,0.00000777,0.00006552,0.00213
 157,0.00591902,-0.00175166,0.00035556,-0.00040557,-0.00025594,0.000345
 61,0.00009108,0.00046739,0.00005334,0.00000899,-0.00000451,-0.00042134
 ,0.00019014,0.00049696,0.00000701,-0.00001323,0.00000967,-0.00103234,-
 0.00018189,-0.00135080,0.00030828,-0.00011952,0.00018326,0.00004422,-0
 .00056117,0.00194547,-0.00006365,-0.00003624,0.00001188,-0.00005480,0.
 00004389,0.00000852,-0.04339041,0.04469345,-0.00337862,-0.02301357,-0.
 01862115,0.02913562,-0.00017673,-0.00082635,0.00031710,0.04163950,0.00
 124694,-0.02678693,-0.00124129,0.00532132,0.00157199,-0.11645967,0.031
 45205,0.01064552,0.58897118,0.00024954,-0.00003080,0.00025260,0.000561
 80,0.00029858,0.00015691,0.00002942,-0.00000259,-0.00028469,0.00003080
 ,-0.00010298,0.00003482,-0.00010865,0.00023510,0.00010711,0.00000642,-
 0.00000901,0.00000312,0.00007154,-0.00012932,-0.00003606,-0.00008794,-
 0.00021874,0.00005205,0.00031508,0.00031809,-0.00130152,0.00655532,-0.
 00009453,0.00295533,0.00004396,-0.00035438,-0.00009567,-0.00002884,-0.
 00001212,0.00025449,0.00001962,0.00004794,-0.00000818,-0.00014425,0.00
 009302,0.00007054,0.00000587,0.00001046,0.00001106,-0.00077717,0.00010
 289,-0.00059448,0.00016107,-0.00017840,-0.00007990,-0.00024303,-0.0001
 2595,0.00137044,-0.00005907,-0.00000073,-0.00004332,-0.00005994,0.0000
 2654,-0.00003944,0.00654659,0.02754963,-0.02609288,-0.01830600,-0.0158
 9275,0.02164557,-0.00082737,-0.00016771,-0.00008432,0.03783654,-0.0348
 0847,0.01061376,0.00508093,0.00060635,0.00236112,-0.01852317,-0.219145
 90,0.15555314,-0.19605260,0.53683562,-0.00019740,0.00002506,0.00006392
 ,-0.00027293,-0.00051125,-0.00003580,0.00023441,0.00001350,0.00027840,
 0.00001702,0.00018383,-0.00001767,0.00018103,-0.00043004,-0.00015621,0
 .00001733,0.00000558,-0.00000287,0.00004857,0.00040838,0.00037229,0.00
 012849,0.00028796,-0.00030443,0.00061736,-0.00061397,-0.00031940,-0.00
 091020,0.00150612,0.00545115,-0.00001249,-0.00011678,0.00032040,-0.000
 17960,-0.00004846,-0.00027477,-0.00001898,0.00009551,0.00001593,0.0001
 3854,-0.00038049,-0.00018772,-0.00000116,0.,-0.00001041,0.00040273,0.0
 0031669,0.00057879,-0.00017152,0.00024698,-0.00003565,-0.00044501,0.00
 088684,-0.00078725,0.00007054,0.00003594,-0.00003117,0.00006378,-0.000
 05653,-0.00002620,0.03182913,-0.05101674,0.03261659,0.02950831,0.02263
 521,-0.04975164,0.00027862,-0.00007524,-0.00107499,-0.06145652,0.03877
 473,0.01876531,0.00198623,0.00210713,0.00416773,0.05649745,0.11577073,
 -0.21640521,-0.17063997,-0.21030623,0.46390683,0.00013919,-0.00001039,
 -0.00010223,-0.00002541,-0.00006794,-0.00005549,-0.00008946,0.00000777
 ,-0.00010397,-0.00000599,0.00000412,-0.00000831,-0.00015847,0.00002401
 ,0.00009605,-0.00000944,-0.00000054,-0.00000326,0.00016043,0.00000377,
 0.00010966,-0.00000133,-0.00002695,0.00001378,-0.00025732,-0.00001810,
 0.00016991,0.00007632,0.00097475,-0.00091851,0.00003903,-0.00004236,-0
 .00003967,0.00010050,0.00000607,0.00014352,0.00000330,0.00000816,0.000
 00344,-0.00016590,-0.00000223,0.00013761,0.00000034,-0.00000052,0.0000
 1179,-0.00011698,-0.00001008,-0.00023099,-0.00000401,-0.00001126,-0.00
 001859,0.00002094,-0.00010334,0.00024328,-0.00004664,-0.00003732,0.000
 03346,-0.00003943,0.00004228,0.00003002,-0.00086768,0.00106097,0.00578
 228,-0.00025799,-0.00080735,0.00014945,-0.00027933,-0.00024245,-0.0004
 2031,0.00295248,0.00099437,0.00264337,0.00015093,-0.00020956,0.0001041
 3,0.00570775,-0.00361227,0.00197190,-0.19698064,0.14936347,-0.01325795
 ,0.20212385,-0.00001399,0.00000143,0.00003722,0.00003518,-0.00001143,0
 .00000190,0.00001612,0.00001102,-0.00001518,0.00000243,-0.00000137,0.0
 0000059,0.00000161,0.00002397,-0.00000970,0.00000262,0.00000013,0.0000
 0089,-0.00000098,-0.00002531,-0.00006174,-0.00001899,-0.00002999,-0.00
 000101,0.00003602,-0.00008246,-0.00002340,-0.00007010,0.00029090,0.000
 09206,-0.00000567,-0.00001695,-0.00003976,0.00001238,0.00001488,0.0000
 0458,0.00000016,-0.00000302,-0.00000254,-0.00000620,0.00001393,-0.0000
 0097,0.00000159,-0.00000113,-0.00000401,0.00001441,-0.00003288,-0.0000
 2985,0.00002666,-0.00001096,0.00000995,0.00005022,-0.00005282,0.000044
 12,0.00000731,0.00000691,-0.00001140,0.00000515,-0.00000946,-0.0000099
 1,0.00095982,0.00382854,0.00269999,-0.00089899,-0.00024404,0.00010492,
 -0.00022580,-0.00038841,-0.00046848,0.00070024,0.00057583,0.00567054,0
 .00077339,-0.00061421,-0.00001724,0.01601750,-0.00929910,-0.00030264,0
 .14950153,-0.19600123,0.02633846,-0.16225298,0.20001462,-0.00002719,0.
 00000290,0.00006222,0.00009907,0.00010547,0.00003190,0.00003125,0.0000
 0304,-0.00001413,0.00000863,-0.00002259,0.00000625,0.00002679,0.000033
 63,-0.00001571,0.00000437,0.00000010,0.00000149,-0.00001704,-0.0000608
 1,-0.00007453,-0.00000863,-0.00001632,0.00000135,0.00013733,0.00001591
 ,-0.00017460,0.00061806,-0.00052472,0.00041828,-0.00002669,0.00000313,
 -0.00003544,-0.00000469,0.00000405,-0.00001561,-0.00000152,-0.00000322
 ,-0.00000354,0.00001749,0.00001398,-0.00003318,0.00000169,-0.00000002,
 -0.00000650,0.00004091,-0.00004627,0.00001103,0.00001639,-0.00000727,0
 .00001136,0.00000166,-0.00002833,0.00001262,0.00001067,0.00001298,-0.0
 0001674,0.00000853,-0.00001521,-0.00001503,0.00510482,0.00245008,0.001
 02294,0.00014434,0.00010172,-0.00118595,-0.00040055,-0.00046522,-0.000
 35899,0.00306988,0.00549473,0.00003585,-0.00082955,0.00073262,-0.00003
 873,-0.01606255,0.01549637,0.00241220,-0.01378819,0.02611992,-0.052048
 35,0.01115430,-0.03150354,0.04677336,-0.00036974,0.00005517,-0.0001358
 0,-0.00237255,-0.00088549,-0.00050624,0.00065188,0.00001260,0.00146983
 ,-0.00007529,0.00024614,-0.00007904,0.00083818,-0.00069338,-0.00081422
 ,0.00000447,-0.00000688,-0.00000511,-0.00055989,0.00055377,0.00003559,
 0.00022785,0.00049299,-0.00046006,0.00256101,-0.00039111,0.00390249,-0
 .03102843,0.01539236,0.00818145,-0.00030113,-0.00043489,0.00164719,-0.
 00119690,0.00000160,-0.00125173,-0.00000753,-0.00003578,0.00002043,0.0
 0121751,0.00022546,-0.00090160,-0.00000212,-0.00003341,-0.00000200,0.0
 0058447,0.00071140,0.00160578,0.00004254,-0.00033982,0.00010546,-0.000
 76371,0.00246482,-0.00497304,0.00011422,0.00003309,-0.00000943,0.00010
 708,-0.00005473,-0.00000265,-0.20389131,0.09859455,0.01776516,0.039609
 28,0.03803107,-0.05569435,0.00258751,0.00013835,0.00278309,-0.06267263
 ,0.02523758,0.01898283,-0.00121689,0.00031057,-0.00010868,0.02416174,-
 0.06600024,0.04734154,-0.25614026,0.04367233,0.10922434,-0.01133522,-0
 .00192763,0.01405297,0.55048893,0.00012107,-0.00002871,-0.00043409,-0.
 00037377,-0.00044014,0.00001659,-0.00035003,0.00002839,-0.00011362,-0.
 00006034,0.00001084,-0.00000030,-0.00020756,0.00018233,0.00027387,-0.0
 0003907,-0.00001763,-0.00000823,0.00006302,0.00011726,0.00021877,-0.00
 004482,-0.00025395,0.00026419,-0.00214319,0.00039683,0.00051763,0.0028
 5899,0.00453302,-0.00504678,0.00050037,-0.00003459,-0.00051112,0.00078
 724,0.00019904,0.00060287,0.00004309,0.00004226,0.00003102,-0.00067934
 ,-0.00021688,0.00083008,-0.00000185,-0.00000165,0.00001965,-0.00057178
 ,-0.00070045,-0.00189433,0.00061859,0.00005635,-0.00090749,-0.00044861
 ,-0.00127836,0.00243158,-0.00005731,-0.00008178,0.00011448,-0.00003834
 ,0.00008299,0.00010143,0.14463822,-0.20490814,0.02126103,0.00120620,-0
 .03529208,0.03893692,0.00075144,0.00046618,0.00513617,0.02627037,-0.01
 551532,-0.01214308,0.00030079,-0.00023269,-0.00074938,-0.02812951,0.02
 872942,0.00236401,-0.00562241,-0.10775435,0.04230846,0.01764362,0.0037
 9716,-0.01390185,-0.14423097,0.52633614,-0.00058597,0.00004946,0.00055
 585,0.00043948,0.00095634,0.00060126,0.00048907,-0.00006520,0.00046023
 ,0.00003458,-0.00014877,0.00008515,0.00089205,0.00004353,-0.00052318,0
 .00003019,0.00001474,0.00002328,-0.00097961,-0.00025965,-0.00089833,0.
 00008965,0.00012273,0.00014924,0.00245634,0.00001817,-0.00188607,0.013
 18094,-0.01363511,0.00855689,-0.00042010,0.00052802,0.00094799,-0.0008
 7372,0.00004954,-0.00117584,0.00003905,-0.00022024,0.00001363,0.001602
 67,0.00047006,-0.00078369,-0.00002102,-0.00001667,-0.00002612,0.000537
 69,-0.00120743,-0.00068626,0.00076000,-0.00097314,-0.00168824,-0.00036
 390,-0.00015355,-0.00266036,0.00018641,0.00016725,-0.00016080,0.000175
 79,-0.00019821,-0.00014606,-0.01666782,0.05380600,-0.10595532,-0.02525
 954,0.01064035,0.01847450,0.00222514,0.00548777,-0.00035296,0.01933278
 ,-0.01210762,-0.01045196,-0.00008769,-0.00082843,-0.00023939,0.0125460
 5,0.03092678,-0.03075243,0.15582343,0.00578091,-0.18988016,-0.00417563
 ,0.00142873,0.00545095,-0.18755131,-0.23751309,0.50140694,-0.00018391,
 0.00003059,-0.00012193,0.00013372,0.00014460,0.00003143,-0.00011370,-0
 .00001547,-0.00009373,0.00000051,-0.00002539,-0.00000292,-0.00006888,0
 .00001921,0.00006759,-0.00000095,0.00000391,0.00000022,0.00007521,-0.0
 0003131,0.00004985,0.00001649,0.00001064,0.00001015,-0.00037565,0.0000
 0238,0.00001974,0.00026104,-0.00036869,-0.00270498,-0.00003313,-0.0000
 2821,0.00008070,0.00003702,0.00002057,-0.00016065,-0.00001152,0.000011
 22,0.00000152,0.00003470,-0.00005655,-0.00004854,0.00000462,0.00000008
 ,-0.00002193,0.00045878,0.00001634,0.00045617,0.00001984,-0.00006333,-
 0.00010186,-0.00010938,-0.00004717,-0.00022869,0.00004448,0.00000801,0
 .00001539,0.00004421,-0.00003292,0.00001674,0.00411301,0.01523256,-0.0
 1395526,-0.00146161,0.00479897,0.00173676,0.00024330,0.00086981,-0.000
 72853,-0.00116521,0.00012188,0.00006786,-0.00015055,-0.00039506,-0.000
 38881,-0.00167961,0.00247045,0.00504511,0.00288186,-0.01756593,0.01675
 903,-0.00022776,-0.00128401,-0.00199795,-0.05445372,-0.01445095,0.0242
 9121,0.05171307,0.00026525,-0.00001519,-0.00001849,0.00018931,0.000094
 57,-0.00006366,-0.00017127,-0.00002988,-0.00025450,0.00000216,-0.00001
 883,-0.00000700,-0.00025870,0.00001325,0.00016412,-0.00000616,0.000000
 65,-0.00000414,0.00022816,-0.00002841,0.00023251,-0.00001741,-0.000016
 01,-0.00002510,-0.00054809,0.00015854,-0.00014979,-0.00138051,-0.00098
 912,-0.00037633,-0.00049862,0.00019093,0.00003171,-0.00019227,-0.00006
 670,-0.00007544,-0.00004315,-0.00004112,-0.00000718,0.00007448,0.00010
 179,-0.00022869,-0.00000512,0.00000921,0.00002654,0.00049795,0.0001486
 0,0.00035150,-0.00034121,-0.00054745,-0.00041306,0.00062457,-0.0001387
 6,-0.00090906,-0.00008807,-0.00004867,0.00003170,-0.00008666,0.0000715
 5,0.00002536,-0.00437541,-0.00948827,0.01521995,0.00528834,0.00048014,
 0.00148439,-0.00013295,-0.00047539,0.00086444,0.00013068,-0.00016272,-
 0.00081251,-0.00038398,-0.00038960,-0.00034949,0.00222969,0.00355931,0
 .00190687,0.00200090,0.00436562,-0.00176753,-0.00153564,-0.00106114,-0
 .00169163,-0.01306848,-0.19799225,0.15118143,0.01151578,0.20226060,0.0
 0009944,-0.00000676,-0.00009787,0.00009766,0.00004148,-0.00006106,-0.0
 0015842,-0.00000182,-0.00016569,-0.00000293,-0.00001067,-0.00000813,-0
 .00019703,0.00001776,0.00014633,-0.00000848,0.00000116,-0.00000374,0.0
 0018704,-0.00002888,0.00021118,0.00000604,-0.00000362,0.00000887,-0.00
 067295,0.00013579,0.00001329,-0.00017296,-0.00195525,-0.00162042,-0.00
 023304,0.00031617,-0.00011624,0.00016352,0.00001526,-0.00001812,-0.000
 01117,0.00000217,0.00000971,0.00001190,-0.00013252,-0.00001848,-0.0000
 0844,0.00000121,0.00000798,0.00014582,-0.00074579,-0.00069080,0.000080
 15,-0.00036173,-0.00040936,0.00043676,-0.00035815,-0.00015418,-0.00003
 938,-0.00003228,0.00003684,-0.00003880,0.00003830,0.00003035,0.0014054
 4,0.00080140,0.00155216,0.00121356,0.00204813,0.00364742,0.00021246,0.
 00008838,0.00011643,0.00002105,-0.00082483,-0.00009610,-0.00036991,-0.
 00034167,-0.00048798,0.00537347,0.00153003,0.00196078,-0.00055210,0.01
 363742,-0.00765477,-0.00171918,-0.00193907,-0.00118029,0.02372873,0.15
 165116,-0.18916516,-0.02891182,-0.16419245,0.19474677,0.00002709,-0.00
 000241,-0.00007670,0.00001163,0.00003329,0.00000112,-0.00006591,-0.000
 00105,-0.00003598,-0.00000046,-0.00000576,-0.00000070,-0.00005511,-0.0
 0000319,0.00005503,-0.00000642,0.00000021,-0.00000178,0.00005613,-0.00
 003496,0.00009069,0.00001938,0.00002908,0.00002468,-0.00015158,-0.0000
 1207,-0.00003676,-0.00011305,-0.00033639,-0.00045082,-0.00000966,0.000
 05877,0.00000686,0.00002458,-0.00000375,0.00000918,-0.00000169,-0.0000
 0997,0.00000091,-0.00002572,0.00000583,0.00002315,-0.00000032,0.000000
 25,0.00000244,0.00002783,-0.00002163,-0.00000462,-0.00001606,-0.000002
 15,-0.00001141,0.00001574,-0.00001754,-0.00005786,-0.00001471,-0.00001
 494,0.00002183,-0.00001156,0.00001706,0.00001995,0.00008524,-0.0000078
 6,-0.00068274,-0.00003359,0.00549538,0.00082064,-0.00068967,-0.0001965
 6,0.00065204,-0.01127640,-0.00256737,0.01438508,-0.00024400,-0.0015517
 7,-0.00162683,-0.23541449,0.00432116,0.14609917,0.00224894,0.00223368,
 -0.00043918,-0.00060606,-0.00145899,-0.00138459,0.00319067,0.00164682,
 0.00185380,-0.00004628,0.00008642,-0.00008643,0.24307549,-0.00001825,0
 .00000188,-0.00002760,0.00002586,0.00005165,-0.00003059,-0.00004514,-0
 .00000960,-0.00003539,0.00000099,-0.00000796,-0.00000383,-0.00004822,0
 .00000409,0.00003444,-0.00000073,0.00000041,-0.00000129,0.00006429,-0.
 00000602,0.00010232,-0.00000365,-0.00000462,-0.00002224,-0.00021980,0.
 00000170,-0.00000745,-0.00033008,-0.00027592,-0.00044198,-0.00003667,0
 .00005008,0.00001637,-0.00001919,-0.00000636,-0.00005004,-0.00000433,-
 0.00000752,-0.00000054,0.00004042,0.00000252,-0.00003481,-0.00000097,0
 .00000044,-0.00000087,0.00008282,-0.00001063,0.00008553,-0.00002266,-0
 .00000157,-0.00000984,0.00005273,0.00000606,-0.00020938,0.00000339,-0.
 00000046,0.00000529,0.00000286,0.00000097,0.00000528,0.00026756,-0.001
 29909,0.00034526,0.00495558,-0.00016367,0.00328416,0.00082035,0.000063
 60,-0.00072437,0.01735362,0.00458328,-0.01349239,-0.00193679,-0.000679
 61,-0.00170980,0.00435042,-0.05188387,0.00719587,-0.01752975,0.0045401
 1,0.01337610,-0.00114207,-0.00069341,-0.00230363,0.00192896,-0.0002292
 3,0.00565529,-0.00091198,0.00005474,0.00060967,-0.00767959,0.04591801,
 -0.00007677,0.00001007,-0.00001416,0.00001355,0.00006862,-0.00000834,-
 0.00001548,-0.00000340,0.00001476,0.00000188,-0.00001220,-0.00000105,0
 .00001348,0.00000700,-0.00000256,0.00000087,0.00000031,-0.00000017,0.0
 0000525,-0.00003093,0.00004997,-0.00000289,0.00000293,-0.00001215,-0.0
 0010347,-0.00002200,-0.00001064,-0.00044691,-0.00044422,-0.00036060,-0
 .00000091,0.00004970,0.00000941,-0.00000757,0.00000215,-0.00006996,-0.
 00000104,-0.00000836,-0.00000076,0.00005940,-0.00000508,-0.00003074,-0
 .00000008,0.00000076,-0.00000624,0.00007962,-0.00004944,0.00007123,0.0
 0001704,0.00003115,0.00002565,0.00000953,-0.00001071,-0.00017217,0.000
 02170,0.00000901,-0.00000227,0.00001989,-0.00001583,-0.00000148,-0.000
 68530,-0.00002311,-0.00025979,0.00102108,0.00314331,0.00391186,-0.0002
 5149,0.00003928,0.00009700,-0.00391336,0.00163332,0.00585316,-0.001274
 66,-0.00194408,-0.00141147,0.14608141,0.00721944,-0.15895816,0.0178828
 0,-0.00201363,-0.00753265,-0.00174386,-0.00199352,-0.00103448,0.001648
 37,0.00614345,0.00070645,0.00081813,-0.00017446,-0.00053971,-0.1591701
 8,-0.01160953,0.15969009\\-0.00000043,0.00000161,-0.00000055,-0.000000
 09,0.00000131,-0.00000054,0.00000009,0.00000163,-0.00000082,0.,0.00000
 223,-0.00000104,0.00000040,0.00000113,-0.00000070,0.00000056,0.0000012
 9,-0.00000084,0.00000035,0.00000046,-0.00000043,0.00000058,-0.00000006
 ,-0.00000024,0.00000012,0.00000057,-0.00000038,0.,0.00000004,0.,-0.000
 00059,0.00000100,-0.00000019,-0.00000084,0.00000102,-0.00000008,-0.000
 00103,0.00000156,-0.00000027,-0.00000086,0.00000031,0.00000021,-0.0000
 0106,0.00000021,0.00000036,-0.00000050,-0.00000015,0.00000034,-0.00000
 041,-0.00000075,0.00000053,-0.00000027,0.00000027,0.00000005,-0.000001
 01,0.00000214,-0.00000053,0.00000011,0.00000199,-0.00000097,0.00000021
 ,-0.00000076,0.00000025,0.00000093,-0.00000103,0.00000002,0.00000130,-
 0.00000068,-0.00000029,0.00000113,-0.00000179,0.00000032,0.00000167,-0
 .00000200,0.00000017,0.00000061,-0.00000223,0.00000078,-0.00000009,-0.
 00000195,0.00000095,-0.00000052,-0.00000231,0.00000132,-0.00000027,-0.
 00000126,0.00000071,-0.00000087,-0.00000101,0.00000087,0.00000076,-0.0
 0000281,0.00000098\\\@
 The archive entry for this job was punched.


 BLACK HOLES SUCK.
 Job cpu time:       0 days  0 hours  0 minutes 25.3 seconds.
 Elapsed time:       0 days  0 hours  9 minutes 47.8 seconds.
 File lengths (MBytes):  RWF=    457 Int=      0 D2E=      0 Chk=     26 Scr=      1
 Normal termination of Gaussian 16 at Tue Feb  1 12:33:42 2022.
