 Entering Gaussian System, Link 0=/lustre1/prg/gaussian/bin/G16_C01_Linda9.2_SSE4/g16/g16
 Initial command:
 /lustre1/prg/gaussian/bin/G16_C01_Linda9.2_SSE4/g16/l1.exe "/lustre1/prg/webmo/data/webmo20/toliste/4403/scratch/Gau-1391873.inp" -scrdir="/lustre1/prg/webmo/data/webmo20/toliste/4403/scratch/"
 Default is to use a total of  12 processors:
                               12 via shared-memory
                                1 via Linda
 Entering Link 1 = /lustre1/prg/gaussian/bin/G16_C01_Linda9.2_SSE4/g16/l1.exe PID=   1391874.
  
 Copyright (c) 1988-2019, Gaussian, Inc.  All Rights Reserved.
  
 This is part of the Gaussian(R) 16 program.  It is based on
 the Gaussian(R) 09 system (copyright 2009, Gaussian, Inc.),
 the Gaussian(R) 03 system (copyright 2003, Gaussian, Inc.),
 the Gaussian(R) 98 system (copyright 1998, Gaussian, Inc.),
 the Gaussian(R) 94 system (copyright 1995, Gaussian, Inc.),
 the Gaussian 92(TM) system (copyright 1992, Gaussian, Inc.),
 the Gaussian 90(TM) system (copyright 1990, Gaussian, Inc.),
 the Gaussian 88(TM) system (copyright 1988, Gaussian, Inc.),
 the Gaussian 86(TM) system (copyright 1986, Carnegie Mellon
 University), and the Gaussian 82(TM) system (copyright 1983,
 Carnegie Mellon University). Gaussian is a federally registered
 trademark of Gaussian, Inc.
  
 This software contains proprietary and confidential information,
 including trade secrets, belonging to Gaussian, Inc.
  
 This software is provided under written license and may be
 used, copied, transmitted, or stored only in accord with that
 written license.
  
 The following legend is applicable only to US Government
 contracts under FAR:
  
                    RESTRICTED RIGHTS LEGEND
  
 Use, reproduction and disclosure by the US Government is
 subject to restrictions as set forth in subparagraphs (a)
 and (c) of the Commercial Computer Software - Restricted
 Rights clause in FAR 52.227-19.
  
 Gaussian, Inc.
 340 Quinnipiac St., Bldg. 40, Wallingford CT 06492
  
  
 ---------------------------------------------------------------
 Warning -- This program may not be used in any manner that
 competes with the business of Gaussian, Inc. or will provide
 assistance to any competitor of Gaussian, Inc.  The licensee
 of this program is prohibited from giving any competitor of
 Gaussian, Inc. access to this program.  By using this program,
 the user acknowledges that Gaussian, Inc. is engaged in the
 business of creating and licensing software in the field of
 computational chemistry and represents and warrants to the
 licensee that it is not a competitor of Gaussian, Inc. and that
 it will not use this program in any manner prohibited above.
 ---------------------------------------------------------------
  

 Cite this work as:
 Gaussian 16, Revision C.01,
 M. J. Frisch, G. W. Trucks, H. B. Schlegel, G. E. Scuseria, 
 M. A. Robb, J. R. Cheeseman, G. Scalmani, V. Barone, 
 G. A. Petersson, H. Nakatsuji, X. Li, M. Caricato, A. V. Marenich, 
 J. Bloino, B. G. Janesko, R. Gomperts, B. Mennucci, H. P. Hratchian, 
 J. V. Ortiz, A. F. Izmaylov, J. L. Sonnenberg, D. Williams-Young, 
 F. Ding, F. Lipparini, F. Egidi, J. Goings, B. Peng, A. Petrone, 
 T. Henderson, D. Ranasinghe, V. G. Zakrzewski, J. Gao, N. Rega, 
 G. Zheng, W. Liang, M. Hada, M. Ehara, K. Toyota, R. Fukuda, 
 J. Hasegawa, M. Ishida, T. Nakajima, Y. Honda, O. Kitao, H. Nakai, 
 T. Vreven, K. Throssell, J. A. Montgomery, Jr., J. E. Peralta, 
 F. Ogliaro, M. J. Bearpark, J. J. Heyd, E. N. Brothers, K. N. Kudin, 
 V. N. Staroverov, T. A. Keith, R. Kobayashi, J. Normand, 
 K. Raghavachari, A. P. Rendell, J. C. Burant, S. S. Iyengar, 
 J. Tomasi, M. Cossi, J. M. Millam, M. Klene, C. Adamo, R. Cammi, 
 J. W. Ochterski, R. L. Martin, K. Morokuma, O. Farkas, 
 J. B. Foresman, and D. J. Fox, Gaussian, Inc., Wallingford CT, 2019.
 
 ******************************************
 Gaussian 16:  ES64L-G16RevC.01  3-Jul-2019
                 1-Feb-2022 
 ******************************************
 %LindaWorkers=fizika55,fizika56,fizika57,fizika58,fizika59,fizika60,fizika61,fiz
 ika62
 %chk=bodipy.chk
 SetLPE:  input flags=" -opt "Tsnet.Node.lindarsharg: ssh" "
 SetLPE:    new flags=" -opt "Tsnet.Node.lindarsharg: ssh" -opt 'Tsnet.Node.lindarsharg: ssh'  -nodelist 'fizika55.fizika.bullx fizika56.fizika.bullx fizika57.fizika.bullx fizika58.fizika.bullx fizika59.fizika.bullx fizika60.fizika.bullx fizika61.fizika.bullx fizika62.fizika.bullx' -env GAUSS_MDEF=11408506880 -env GAUSS_EXEDIR="/lustre1/prg/gaussian/bin/G16_C01_Linda9.2_SSE4/g16/bsd:/lustre1/prg/gaussian/bin/G16_C01_Linda9.2_SSE4/g16/private:/lustre1/prg/gaussian/bin/G16_C01_Linda9.2_SSE4/g16""
 Will use up to    8 processors via Linda.
 ----------------------------------------------------------------------
 #p m062x cc-pvdz scrf=(cpcm,solvent=Methanol) opt=(tight,calcfc) freq 
 nosymm int=ultrafine fchk
 ----------------------------------------------------------------------
 1/7=10,10=4,18=20,19=15,26=6,38=1/1,3;
 2/9=110,12=2,15=1,17=6,18=5,40=1/2;
 3/5=16,11=2,25=1,30=1,70=2101,71=2,72=3,74=-55,75=-5,140=1/1,2,3;
 4//1;
 5/5=2,38=5,53=3/2;
 8/6=4,10=90,11=11/1;
 11/6=1,8=1,9=11,15=111,16=1,31=1/1,2,10;
 10/6=1,13=1,31=1/2;
 6/7=2,8=2,9=2,10=2,28=1/1;
 7/10=1,25=1,30=1/1,2,3,16;
 1/7=10,10=4,18=20,19=15,26=6/3(2);
 2/9=110,15=1/2;
 99//99;
 2/9=110,15=1/2;
 3/5=16,11=2,25=1,30=1,70=2105,71=1,72=3,74=-55,75=-5/1,2,3;
 4/5=5,16=3,69=1/1;
 5/5=2,38=5,53=3/2;
 7/30=1/1,2,3,16;
 1/7=10,18=20,19=15,26=6/3(-5);
 2/9=110,15=1/2;
 6/7=2,8=2,9=2,10=2,19=2,28=1/1;
 99/9=1/99;
 Leave Link    1 at Tue Feb  1 06:33:50 2022, MaxMem=           0 cpu:               1.9 elap:               0.2
 (Enter /lustre1/prg/gaussian/bin/G16_C01_Linda9.2_SSE4/g16/l101.exe)
 -----------------------------------
 BDP-phenyl, optimized S0 in toluene
 -----------------------------------
 Symbolic Z-matrix:
 Charge =  0 Multiplicity = 1
 B                    -0.00469  -0.10715   0.00523 
 N                     0.00355  -0.0348    1.56053 
 C                     1.09142   0.03399   2.3329 
 H                     2.08367   0.04716   1.88742 
 C                     0.72032   0.0914    3.69253 
 H                     1.40229   0.16063   4.53392 
 C                    -0.66717   0.06113   3.72674 
 H                    -1.31044   0.11634   4.60031 
 C                    -1.11444  -0.02512   2.38272 
 C                    -2.41075  -0.01349   1.84304 
 N                    -1.49909   0.04475  -0.4088 
 C                    -1.95685   0.07014  -1.66364 
 H                    -1.26471   0.08307  -2.50272 
 C                    -3.36721   0.06095  -1.66801 
 H                    -3.9994    0.07658  -2.55003 
 C                    -3.76782   0.01911  -0.33944 
 H                    -4.78289  -0.01718   0.04535 
 C                    -2.589     0.01886   0.45061 
 F                     0.75672   0.92638  -0.52704 
 F                     0.4778   -1.34134  -0.4211 
 C                    -3.58379  -0.01873   2.7443 
 C                    -3.70423  -1.00041   3.73869 
 H                    -2.93739  -1.77114   3.82768 
 C                    -4.81073  -1.00786   4.58442 
 H                    -4.90286  -1.78306   5.34553 
 C                    -5.79759  -0.03012   4.45627 
 C                    -5.67894   0.95398   3.47453 
 H                    -6.44292   1.72571   3.37709 
 C                    -4.58181   0.95827   2.61672 
 H                    -4.47817   1.73648   1.85944 
 H                    -6.6603   -0.03455   5.12325 
 
 ITRead=  0  0  0  0  0  0  0  0  0  0  0  0  0  0  0  0  0  0  0  0
 ITRead=  0  0  0  0  0  0  0  0  0  0  0
 MicOpt= -1 -1 -1 -1 -1 -1 -1 -1 -1 -1 -1 -1 -1 -1 -1 -1 -1 -1 -1 -1
 MicOpt= -1 -1 -1 -1 -1 -1 -1 -1 -1 -1 -1
 NAtoms=     31 NQM=       31 NQMF=       0 NMMI=      0 NMMIF=      0
                NMic=       0 NMicF=      0.
                    Isotopes and Nuclear Properties:
 (Nuclear quadrupole moments (NQMom) in fm**2, nuclear magnetic moments (NMagM)
  in nuclear magnetons)

  Atom         1           2           3           4           5           6           7           8           9          10
 IAtWgt=          11          14          12           1          12           1          12           1          12          12
 AtmWgt=  11.0093053  14.0030740  12.0000000   1.0078250  12.0000000   1.0078250  12.0000000   1.0078250  12.0000000  12.0000000
 NucSpn=           3           2           0           1           0           1           0           1           0           0
 AtZEff=  -0.0000000  -0.0000000  -0.0000000  -0.0000000  -0.0000000  -0.0000000  -0.0000000  -0.0000000  -0.0000000  -0.0000000
 NQMom=    4.0590000   2.0440000   0.0000000   0.0000000   0.0000000   0.0000000   0.0000000   0.0000000   0.0000000   0.0000000
 NMagM=    2.6886370   0.4037610   0.0000000   2.7928460   0.0000000   2.7928460   0.0000000   2.7928460   0.0000000   0.0000000
 AtZNuc=   5.0000000   7.0000000   6.0000000   1.0000000   6.0000000   1.0000000   6.0000000   1.0000000   6.0000000   6.0000000

  Atom        11          12          13          14          15          16          17          18          19          20
 IAtWgt=          14          12           1          12           1          12           1          12          19          19
 AtmWgt=  14.0030740  12.0000000   1.0078250  12.0000000   1.0078250  12.0000000   1.0078250  12.0000000  18.9984033  18.9984033
 NucSpn=           2           0           1           0           1           0           1           0           1           1
 AtZEff=  -0.0000000  -0.0000000  -0.0000000  -0.0000000  -0.0000000  -0.0000000  -0.0000000  -0.0000000  -0.0000000  -0.0000000
 NQMom=    2.0440000   0.0000000   0.0000000   0.0000000   0.0000000   0.0000000   0.0000000   0.0000000   0.0000000   0.0000000
 NMagM=    0.4037610   0.0000000   2.7928460   0.0000000   2.7928460   0.0000000   2.7928460   0.0000000   2.6288670   2.6288670
 AtZNuc=   7.0000000   6.0000000   1.0000000   6.0000000   1.0000000   6.0000000   1.0000000   6.0000000   9.0000000   9.0000000

  Atom        21          22          23          24          25          26          27          28          29          30
 IAtWgt=          12          12           1          12           1          12          12           1          12           1
 AtmWgt=  12.0000000  12.0000000   1.0078250  12.0000000   1.0078250  12.0000000  12.0000000   1.0078250  12.0000000   1.0078250
 NucSpn=           0           0           1           0           1           0           0           1           0           1
 AtZEff=  -0.0000000  -0.0000000  -0.0000000  -0.0000000  -0.0000000  -0.0000000  -0.0000000  -0.0000000  -0.0000000  -0.0000000
 NQMom=    0.0000000   0.0000000   0.0000000   0.0000000   0.0000000   0.0000000   0.0000000   0.0000000   0.0000000   0.0000000
 NMagM=    0.0000000   0.0000000   2.7928460   0.0000000   2.7928460   0.0000000   0.0000000   2.7928460   0.0000000   2.7928460
 AtZNuc=   6.0000000   6.0000000   1.0000000   6.0000000   1.0000000   6.0000000   6.0000000   1.0000000   6.0000000   1.0000000

  Atom        31
 IAtWgt=           1
 AtmWgt=   1.0078250
 NucSpn=           1
 AtZEff=  -0.0000000
 NQMom=    0.0000000
 NMagM=    2.7928460
 AtZNuc=   1.0000000
 Leave Link  101 at Tue Feb  1 06:33:51 2022, MaxMem= 11408506880 cpu:               6.6 elap:               0.6
 (Enter /lustre1/prg/gaussian/bin/G16_C01_Linda9.2_SSE4/g16/l103.exe)

 GradGradGradGradGradGradGradGradGradGradGradGradGradGradGradGradGradGrad
 Berny optimization.
 Initialization pass.
                           ----------------------------
                           !    Initial Parameters    !
                           ! (Angstroms and Degrees)  !
 --------------------------                            --------------------------
 ! Name  Definition              Value          Derivative Info.                !
 --------------------------------------------------------------------------------
 ! R1    R(1,2)                  1.557          calculate D2E/DX2 analytically  !
 ! R2    R(1,11)                 1.5581         calculate D2E/DX2 analytically  !
 ! R3    R(1,19)                 1.3897         calculate D2E/DX2 analytically  !
 ! R4    R(1,20)                 1.392          calculate D2E/DX2 analytically  !
 ! R5    R(2,3)                  1.3359         calculate D2E/DX2 analytically  !
 ! R6    R(2,9)                  1.3878         calculate D2E/DX2 analytically  !
 ! R7    R(3,4)                  1.0877         calculate D2E/DX2 analytically  !
 ! R8    R(3,5)                  1.4105         calculate D2E/DX2 analytically  !
 ! R9    R(5,6)                  1.0853         calculate D2E/DX2 analytically  !
 ! R10   R(5,7)                  1.3882         calculate D2E/DX2 analytically  !
 ! R11   R(7,8)                  1.0863         calculate D2E/DX2 analytically  !
 ! R12   R(7,9)                  1.4191         calculate D2E/DX2 analytically  !
 ! R13   R(9,10)                 1.4042         calculate D2E/DX2 analytically  !
 ! R14   R(10,18)                1.4042         calculate D2E/DX2 analytically  !
 ! R15   R(10,21)                1.4793         calculate D2E/DX2 analytically  !
 ! R16   R(11,12)                1.336          calculate D2E/DX2 analytically  !
 ! R17   R(11,18)                1.3882         calculate D2E/DX2 analytically  !
 ! R18   R(12,13)                1.0878         calculate D2E/DX2 analytically  !
 ! R19   R(12,14)                1.4104         calculate D2E/DX2 analytically  !
 ! R20   R(14,15)                1.0853         calculate D2E/DX2 analytically  !
 ! R21   R(14,16)                1.3883         calculate D2E/DX2 analytically  !
 ! R22   R(16,17)                1.0862         calculate D2E/DX2 analytically  !
 ! R23   R(16,18)                1.4191         calculate D2E/DX2 analytically  !
 ! R24   R(21,22)                1.4025         calculate D2E/DX2 analytically  !
 ! R25   R(21,29)                1.4024         calculate D2E/DX2 analytically  !
 ! R26   R(22,23)                1.0909         calculate D2E/DX2 analytically  !
 ! R27   R(22,24)                1.3927         calculate D2E/DX2 analytically  !
 ! R28   R(24,25)                1.0903         calculate D2E/DX2 analytically  !
 ! R29   R(24,26)                1.3951         calculate D2E/DX2 analytically  !
 ! R30   R(26,27)                1.3951         calculate D2E/DX2 analytically  !
 ! R31   R(26,31)                1.0905         calculate D2E/DX2 analytically  !
 ! R32   R(27,28)                1.0903         calculate D2E/DX2 analytically  !
 ! R33   R(27,29)                1.3927         calculate D2E/DX2 analytically  !
 ! R34   R(29,30)                1.0908         calculate D2E/DX2 analytically  !
 ! A1    A(2,1,11)             105.4249         calculate D2E/DX2 analytically  !
 ! A2    A(2,1,19)             110.19           calculate D2E/DX2 analytically  !
 ! A3    A(2,1,20)             110.1997         calculate D2E/DX2 analytically  !
 ! A4    A(11,1,19)            110.5614         calculate D2E/DX2 analytically  !
 ! A5    A(11,1,20)            109.7234         calculate D2E/DX2 analytically  !
 ! A6    A(19,1,20)            110.6208         calculate D2E/DX2 analytically  !
 ! A7    A(1,2,3)              125.747          calculate D2E/DX2 analytically  !
 ! A8    A(1,2,9)              126.0051         calculate D2E/DX2 analytically  !
 ! A9    A(3,2,9)              108.2475         calculate D2E/DX2 analytically  !
 ! A10   A(2,3,4)              120.4425         calculate D2E/DX2 analytically  !
 ! A11   A(2,3,5)              110.19           calculate D2E/DX2 analytically  !
 ! A12   A(4,3,5)              129.3654         calculate D2E/DX2 analytically  !
 ! A13   A(3,5,6)              125.7731         calculate D2E/DX2 analytically  !
 ! A14   A(3,5,7)              106.6078         calculate D2E/DX2 analytically  !
 ! A15   A(6,5,7)              127.6132         calculate D2E/DX2 analytically  !
 ! A16   A(5,7,8)              127.6313         calculate D2E/DX2 analytically  !
 ! A17   A(5,7,9)              107.0369         calculate D2E/DX2 analytically  !
 ! A18   A(8,7,9)              125.3163         calculate D2E/DX2 analytically  !
 ! A19   A(2,9,7)              107.9156         calculate D2E/DX2 analytically  !
 ! A20   A(2,9,10)             121.0672         calculate D2E/DX2 analytically  !
 ! A21   A(7,9,10)             130.8781         calculate D2E/DX2 analytically  !
 ! A22   A(9,10,18)            119.901          calculate D2E/DX2 analytically  !
 ! A23   A(9,10,21)            119.8579         calculate D2E/DX2 analytically  !
 ! A24   A(18,10,21)           120.2369         calculate D2E/DX2 analytically  !
 ! A25   A(1,11,12)            125.4557         calculate D2E/DX2 analytically  !
 ! A26   A(1,11,18)            125.9225         calculate D2E/DX2 analytically  !
 ! A27   A(12,11,18)           108.2289         calculate D2E/DX2 analytically  !
 ! A28   A(11,12,13)           120.446          calculate D2E/DX2 analytically  !
 ! A29   A(11,12,14)           110.2077         calculate D2E/DX2 analytically  !
 ! A30   A(13,12,14)           129.3425         calculate D2E/DX2 analytically  !
 ! A31   A(12,14,15)           125.7969         calculate D2E/DX2 analytically  !
 ! A32   A(12,14,16)           106.606          calculate D2E/DX2 analytically  !
 ! A33   A(15,14,16)           127.5957         calculate D2E/DX2 analytically  !
 ! A34   A(14,16,17)           127.5689         calculate D2E/DX2 analytically  !
 ! A35   A(14,16,18)           107.0424         calculate D2E/DX2 analytically  !
 ! A36   A(17,16,18)           125.3861         calculate D2E/DX2 analytically  !
 ! A37   A(10,18,11)           120.9747         calculate D2E/DX2 analytically  !
 ! A38   A(10,18,16)           131.112          calculate D2E/DX2 analytically  !
 ! A39   A(11,18,16)           107.9105         calculate D2E/DX2 analytically  !
 ! A40   A(10,21,22)           120.1681         calculate D2E/DX2 analytically  !
 ! A41   A(10,21,29)           120.4253         calculate D2E/DX2 analytically  !
 ! A42   A(22,21,29)           119.4062         calculate D2E/DX2 analytically  !
 ! A43   A(21,22,23)           119.4729         calculate D2E/DX2 analytically  !
 ! A44   A(21,22,24)           120.1669         calculate D2E/DX2 analytically  !
 ! A45   A(23,22,24)           120.343          calculate D2E/DX2 analytically  !
 ! A46   A(22,24,25)           119.6603         calculate D2E/DX2 analytically  !
 ! A47   A(22,24,26)           120.1638         calculate D2E/DX2 analytically  !
 ! A48   A(25,24,26)           120.1757         calculate D2E/DX2 analytically  !
 ! A49   A(24,26,27)           119.9239         calculate D2E/DX2 analytically  !
 ! A50   A(24,26,31)           120.0392         calculate D2E/DX2 analytically  !
 ! A51   A(27,26,31)           120.0369         calculate D2E/DX2 analytically  !
 ! A52   A(26,27,28)           120.1712         calculate D2E/DX2 analytically  !
 ! A53   A(26,27,29)           120.1725         calculate D2E/DX2 analytically  !
 ! A54   A(28,27,29)           119.656          calculate D2E/DX2 analytically  !
 ! A55   A(21,29,27)           120.1614         calculate D2E/DX2 analytically  !
 ! A56   A(21,29,30)           119.5082         calculate D2E/DX2 analytically  !
 ! A57   A(27,29,30)           120.309          calculate D2E/DX2 analytically  !
 ! D1    D(11,1,2,3)          -171.729          calculate D2E/DX2 analytically  !
 ! D2    D(11,1,2,9)             7.9925         calculate D2E/DX2 analytically  !
 ! D3    D(19,1,2,3)           -52.4114         calculate D2E/DX2 analytically  !
 ! D4    D(19,1,2,9)           127.31           calculate D2E/DX2 analytically  !
 ! D5    D(20,1,2,3)            69.9411         calculate D2E/DX2 analytically  !
 ! D6    D(20,1,2,9)          -110.3375         calculate D2E/DX2 analytically  !
 ! D7    D(2,1,11,12)          178.3265         calculate D2E/DX2 analytically  !
 ! D8    D(2,1,11,18)           -9.7273         calculate D2E/DX2 analytically  !
 ! D9    D(19,1,11,12)          59.2559         calculate D2E/DX2 analytically  !
 ! D10   D(19,1,11,18)        -128.798          calculate D2E/DX2 analytically  !
 ! D11   D(20,1,11,12)         -63.0247         calculate D2E/DX2 analytically  !
 ! D12   D(20,1,11,18)         108.9214         calculate D2E/DX2 analytically  !
 ! D13   D(1,2,3,4)              0.228          calculate D2E/DX2 analytically  !
 ! D14   D(1,2,3,5)            179.7567         calculate D2E/DX2 analytically  !
 ! D15   D(9,2,3,4)           -179.5348         calculate D2E/DX2 analytically  !
 ! D16   D(9,2,3,5)             -0.006          calculate D2E/DX2 analytically  !
 ! D17   D(1,2,9,7)           -179.4693         calculate D2E/DX2 analytically  !
 ! D18   D(1,2,9,10)            -3.315          calculate D2E/DX2 analytically  !
 ! D19   D(3,2,9,7)              0.2927         calculate D2E/DX2 analytically  !
 ! D20   D(3,2,9,10)           176.447          calculate D2E/DX2 analytically  !
 ! D21   D(2,3,5,6)           -179.4601         calculate D2E/DX2 analytically  !
 ! D22   D(2,3,5,7)             -0.2873         calculate D2E/DX2 analytically  !
 ! D23   D(4,3,5,6)              0.0143         calculate D2E/DX2 analytically  !
 ! D24   D(4,3,5,7)            179.1872         calculate D2E/DX2 analytically  !
 ! D25   D(3,5,7,8)           -178.1616         calculate D2E/DX2 analytically  !
 ! D26   D(3,5,7,9)              0.454          calculate D2E/DX2 analytically  !
 ! D27   D(6,5,7,8)              0.9912         calculate D2E/DX2 analytically  !
 ! D28   D(6,5,7,9)            179.6068         calculate D2E/DX2 analytically  !
 ! D29   D(5,7,9,2)             -0.4671         calculate D2E/DX2 analytically  !
 ! D30   D(5,7,9,10)          -176.1095         calculate D2E/DX2 analytically  !
 ! D31   D(8,7,9,2)            178.1893         calculate D2E/DX2 analytically  !
 ! D32   D(8,7,9,10)             2.5469         calculate D2E/DX2 analytically  !
 ! D33   D(2,9,10,18)           -1.4312         calculate D2E/DX2 analytically  !
 ! D34   D(2,9,10,21)          179.3128         calculate D2E/DX2 analytically  !
 ! D35   D(7,9,10,18)          173.7271         calculate D2E/DX2 analytically  !
 ! D36   D(7,9,10,21)           -5.5289         calculate D2E/DX2 analytically  !
 ! D37   D(9,10,18,11)          -0.2417         calculate D2E/DX2 analytically  !
 ! D38   D(9,10,18,16)         179.0731         calculate D2E/DX2 analytically  !
 ! D39   D(21,10,18,11)        179.0115         calculate D2E/DX2 analytically  !
 ! D40   D(21,10,18,16)         -1.6737         calculate D2E/DX2 analytically  !
 ! D41   D(9,10,21,22)         -53.1942         calculate D2E/DX2 analytically  !
 ! D42   D(9,10,21,29)         126.5694         calculate D2E/DX2 analytically  !
 ! D43   D(18,10,21,22)        127.5524         calculate D2E/DX2 analytically  !
 ! D44   D(18,10,21,29)        -52.6841         calculate D2E/DX2 analytically  !
 ! D45   D(1,11,12,13)          -6.2444         calculate D2E/DX2 analytically  !
 ! D46   D(1,11,12,14)         173.1069         calculate D2E/DX2 analytically  !
 ! D47   D(18,11,12,13)       -179.3839         calculate D2E/DX2 analytically  !
 ! D48   D(18,11,12,14)         -0.0325         calculate D2E/DX2 analytically  !
 ! D49   D(1,11,18,10)           6.7973         calculate D2E/DX2 analytically  !
 ! D50   D(1,11,18,16)        -172.6602         calculate D2E/DX2 analytically  !
 ! D51   D(12,11,18,10)        179.8963         calculate D2E/DX2 analytically  !
 ! D52   D(12,11,18,16)          0.4388         calculate D2E/DX2 analytically  !
 ! D53   D(11,12,14,15)       -179.9889         calculate D2E/DX2 analytically  !
 ! D54   D(11,12,14,16)         -0.3927         calculate D2E/DX2 analytically  !
 ! D55   D(13,12,14,15)         -0.712          calculate D2E/DX2 analytically  !
 ! D56   D(13,12,14,16)        178.8843         calculate D2E/DX2 analytically  !
 ! D57   D(12,14,16,17)       -178.7867         calculate D2E/DX2 analytically  !
 ! D58   D(12,14,16,18)          0.6442         calculate D2E/DX2 analytically  !
 ! D59   D(15,14,16,17)          0.8            calculate D2E/DX2 analytically  !
 ! D60   D(15,14,16,18)       -179.769          calculate D2E/DX2 analytically  !
 ! D61   D(14,16,18,10)        179.9405         calculate D2E/DX2 analytically  !
 ! D62   D(14,16,18,11)         -0.6769         calculate D2E/DX2 analytically  !
 ! D63   D(17,16,18,10)         -0.6128         calculate D2E/DX2 analytically  !
 ! D64   D(17,16,18,11)        178.7698         calculate D2E/DX2 analytically  !
 ! D65   D(10,21,22,23)         -1.2944         calculate D2E/DX2 analytically  !
 ! D66   D(10,21,22,24)       -179.7947         calculate D2E/DX2 analytically  !
 ! D67   D(29,21,22,23)        178.9396         calculate D2E/DX2 analytically  !
 ! D68   D(29,21,22,24)          0.4394         calculate D2E/DX2 analytically  !
 ! D69   D(10,21,29,27)       -179.528          calculate D2E/DX2 analytically  !
 ! D70   D(10,21,29,30)         -1.2075         calculate D2E/DX2 analytically  !
 ! D71   D(22,21,29,27)          0.2374         calculate D2E/DX2 analytically  !
 ! D72   D(22,21,29,30)        178.5578         calculate D2E/DX2 analytically  !
 ! D73   D(21,22,24,25)        179.1502         calculate D2E/DX2 analytically  !
 ! D74   D(21,22,24,26)         -0.7065         calculate D2E/DX2 analytically  !
 ! D75   D(23,22,24,25)          0.6631         calculate D2E/DX2 analytically  !
 ! D76   D(23,22,24,26)       -179.1936         calculate D2E/DX2 analytically  !
 ! D77   D(22,24,26,27)          0.2946         calculate D2E/DX2 analytically  !
 ! D78   D(22,24,26,31)       -179.6526         calculate D2E/DX2 analytically  !
 ! D79   D(25,24,26,27)       -179.5613         calculate D2E/DX2 analytically  !
 ! D80   D(25,24,26,31)          0.4915         calculate D2E/DX2 analytically  !
 ! D81   D(24,26,27,28)       -179.4054         calculate D2E/DX2 analytically  !
 ! D82   D(24,26,27,29)          0.3839         calculate D2E/DX2 analytically  !
 ! D83   D(31,26,27,28)          0.5418         calculate D2E/DX2 analytically  !
 ! D84   D(31,26,27,29)       -179.6689         calculate D2E/DX2 analytically  !
 ! D85   D(26,27,29,21)         -0.6493         calculate D2E/DX2 analytically  !
 ! D86   D(26,27,29,30)       -178.9562         calculate D2E/DX2 analytically  !
 ! D87   D(28,27,29,21)        179.1411         calculate D2E/DX2 analytically  !
 ! D88   D(28,27,29,30)          0.8342         calculate D2E/DX2 analytically  !
 --------------------------------------------------------------------------------
 Trust Radius=3.00D-01 FncErr=5.00D-06 GrdErr=5.00D-06 EigMax=2.50D+02 EigMin=1.00D-04
 Number of steps in this run=    186 maximum allowed number of steps=    186.
 GradGradGradGradGradGradGradGradGradGradGradGradGradGradGradGradGradGrad

 Leave Link  103 at Tue Feb  1 06:33:51 2022, MaxMem= 11408506880 cpu:               0.2 elap:               0.0
 (Enter /lustre1/prg/gaussian/bin/G16_C01_Linda9.2_SSE4/g16/l202.exe)
                          Input orientation:                          
 ---------------------------------------------------------------------
 Center     Atomic      Atomic             Coordinates (Angstroms)
 Number     Number       Type             X           Y           Z
 ---------------------------------------------------------------------
      1          5           0       -0.004686   -0.107152    0.005226
      2          7           0        0.003548   -0.034800    1.560532
      3          6           0        1.091421    0.033991    2.332896
      4          1           0        2.083673    0.047162    1.887420
      5          6           0        0.720322    0.091400    3.692526
      6          1           0        1.402293    0.160633    4.533920
      7          6           0       -0.667171    0.061134    3.726743
      8          1           0       -1.310438    0.116342    4.600311
      9          6           0       -1.114442   -0.025116    2.382722
     10          6           0       -2.410750   -0.013491    1.843035
     11          7           0       -1.499087    0.044745   -0.408802
     12          6           0       -1.956852    0.070138   -1.663643
     13          1           0       -1.264713    0.083072   -2.502719
     14          6           0       -3.367211    0.060949   -1.668014
     15          1           0       -3.999396    0.076583   -2.550027
     16          6           0       -3.767823    0.019114   -0.339442
     17          1           0       -4.782894   -0.017180    0.045352
     18          6           0       -2.589001    0.018861    0.450605
     19          9           0        0.756717    0.926383   -0.527040
     20          9           0        0.477796   -1.341339   -0.421102
     21          6           0       -3.583787   -0.018728    2.744297
     22          6           0       -3.704225   -1.000408    3.738689
     23          1           0       -2.937387   -1.771143    3.827681
     24          6           0       -4.810726   -1.007863    4.584417
     25          1           0       -4.902855   -1.783062    5.345534
     26          6           0       -5.797590   -0.030121    4.456265
     27          6           0       -5.678943    0.953982    3.474528
     28          1           0       -6.442924    1.725709    3.377094
     29          6           0       -4.581809    0.958273    2.616723
     30          1           0       -4.478169    1.736484    1.859444
     31          1           0       -6.660297   -0.034554    5.123247
 ---------------------------------------------------------------------
                    Distance matrix (angstroms):
                    1          2          3          4          5
     1  B    0.000000
     2  N    1.557010   0.000000
     3  C    2.576707   1.335944   0.000000
     4  H    2.815619   2.107248   1.087744   0.000000
     5  C    3.763142   2.252796   1.410533   2.262541   0.000000
     6  H    4.749776   3.291765   2.226474   2.735163   1.085275
     7  C    3.783767   2.269700   2.244146   3.309146   1.388245
     8  H    4.782232   3.315066   3.304070   4.345636   2.224563
     9  C    2.625029   1.387801   2.207217   3.237049   2.257326
    10  C    3.029102   2.430863   3.536583   4.495051   3.638026
    11  N    1.558116   2.478410   3.771970   4.255445   4.663566
    12  C    2.574395   3.774849   5.026490   5.379258   5.988010
    13  H    2.813120   4.258214   5.379307   5.521440   6.505497
    14  C    3.759596   4.668479   5.990610   6.507952   6.741234
    15  H    4.745607   5.738699   7.054160   7.529643   7.825946
    16  C    3.780997   4.223274   5.545617   6.260967   6.033692
    17  H    4.779223   5.020568   6.304209   7.109648   6.602958
    18  C    2.625438   2.820661   4.133855   4.888673   4.633242
    19  F    1.389689   2.418490   3.014569   2.891965   4.301541
    20  F    1.392035   2.420502   3.138881   3.136248   4.362739
    21  C    4.507804   3.777636   4.693570   5.732249   4.408698
    22  C    5.331345   4.407306   5.103377   6.166390   4.557498
    23  H    5.097133   4.099262   4.660921   5.681715   4.106844
    24  C    6.699126   5.767839   6.402355   7.477941   5.709321
    25  H    7.437716   6.438591   6.950469   8.007487   6.153549
    26  C    7.305848   6.483710   7.209111   8.289707   6.563630
    27  C    6.734928   6.077152   6.927304   7.974926   6.460818
    28  H    7.495317   6.925048   7.792215   8.817001   7.354084
    29  C    5.376347   4.809078   5.755032   6.766879   5.479180
    30  H    5.181618   4.828311   5.843199   6.775866   5.752460
    31  H    8.396223   7.556439   8.238925   9.323855   7.519067
                    6          7          8          9         10
     6  H    0.000000
     7  C    2.223537   0.000000
     8  H    2.713905   1.086260   0.000000
     9  C    3.316038   1.419113   2.230723   0.000000
    10  C    4.670169   2.567877   2.971551   1.404212   0.000000
    11  N    5.732533   4.218422   5.013175   2.818765   2.430080
    12  C    7.049953   5.542528   6.297389   4.134223   3.536921
    13  H    7.525505   6.258094   7.103255   4.888949   4.495365
    14  C    7.824455   6.032712   6.597369   4.635821   3.639756
    15  H    8.908850   7.106462   7.639333   5.715358   4.672355
    16  C    7.106320   5.113675   5.518093   3.801653   2.570198
    17  H    7.644305   5.522495   5.729174   4.349816   2.976364
    18  C    5.711741   3.798460   4.343304   2.430912   1.404166
    19  F    5.159114   4.568455   5.587399   3.587938   4.066136
    20  F    5.259549   4.525759   5.526048   3.482685   3.902973
    21  C    5.300558   3.078673   2.937881   2.495685   1.479296
    22  C    5.296880   3.217252   2.778442   3.081691   2.498117
    23  H    4.802432   2.919128   2.608931   2.908547   2.702870
    24  C    6.322147   4.364334   3.676426   4.413136   3.776749
    25  H    6.647673   4.895157   4.131411   5.120615   4.648599
    26  C    7.202828   5.182830   4.491852   5.121668   4.277842
    27  C    7.203861   5.096925   4.588340   4.794303   3.778738
    28  H    8.083015   6.020996   5.516225   5.696217   4.651514
    29  C    6.334142   4.166701   3.917313   3.611709   2.501283
    30  H    6.649508   4.562599   4.491295   3.832977   2.708672
    31  H    8.086455   6.154424   5.377474   6.186039   5.368322
                   11         12         13         14         15
    11  N    0.000000
    12  C    1.335971   0.000000
    13  H    2.107342   1.087783   0.000000
    14  C    2.252946   1.410396   2.262238   0.000000
    15  H    3.292021   2.226590   2.735100   1.085288   0.000000
    16  C    2.269941   2.244043   3.308990   1.388288   2.223424
    17  H    3.315642   3.303756   4.345148   2.223935   2.712684
    18  C    1.388223   2.207326   3.237280   2.257416   3.316073
    19  F    2.424854   3.064062   2.949688   4.365499   5.237867
    20  F    2.414425   3.076311   3.065683   4.278467   5.156362
    21  C    3.780481   4.699441   5.737564   4.418342   5.311467
    22  C    4.812137   5.777938   6.788249   5.520190   6.387095
    23  H    4.828452   5.874215   6.805139   5.808956   6.724367
    24  C    6.083352   6.953052   7.999490   6.505305   7.261857
    25  H    6.931010   7.825717   8.849498   7.412721   8.161765
    26  C    6.492427   7.225967   8.305856   6.589524   7.234156
    27  C    5.777383   6.405930   7.481403   5.708533   6.315534
    28  H    6.449820   6.948006   8.005269   6.138774   6.619759
    29  C    4.414919   5.099090   6.162612   4.543062   5.273698
    30  H    4.108753   4.641755   5.664674   4.060124   4.735813
    31  H    7.566237   8.258040   9.342458   7.548163   8.122308
                   16         17         18         19         20
    16  C    0.000000
    17  H    1.086164   0.000000
    18  C    1.419083   2.231299   0.000000
    19  F    4.618419   5.648472   3.601835   0.000000
    20  F    4.459011   5.444799   3.466304   2.287265   0.000000
    21  C    3.089457   2.953331   2.500407   5.516779   5.316531
    22  C    4.204120   3.971272   3.618581   6.465986   5.908417
    23  H    4.610809   4.559418   3.837985   6.315588   5.468122
    24  C    5.136800   4.646002   4.804022   7.801585   7.289368
    25  H    6.070839   5.587903   5.706240   8.594124   7.899406
    26  C    5.207800   4.526138   5.132519   8.288979   8.055338
    27  C    4.367233   3.674957   4.423381   7.578326   7.638708
    28  H    4.886847   4.110215   5.131315   8.228974   8.469324
    29  C    3.206790   2.757516   3.089635   6.195492   6.333735
    30  H    2.879071   2.541481   2.916164   5.809957   6.263823
    31  H    6.181445   5.413868   6.197732   9.373433   9.132353
                   21         22         23         24         25
    21  C    0.000000
    22  C    1.402504   0.000000
    23  H    2.159285   1.090868   0.000000
    24  C    2.422769   1.392715   2.159779   0.000000
    25  H    3.408702   2.152025   2.483361   1.090285   0.000000
    26  C    2.798551   2.416309   3.406910   1.395100   2.159665
    27  C    2.422619   2.790866   3.881643   2.415469   3.405053
    28  H    3.408542   3.881100   4.971900   3.405013   4.307905
    29  C    1.402446   2.421857   3.408849   2.791042   3.881288
    30  H    2.159549   3.408978   4.307135   3.881689   4.971960
    31  H    3.889032   3.404150   4.307469   2.158375   2.489035
                   26         27         28         29         30
    26  C    0.000000
    27  C    1.395114   0.000000
    28  H    2.159631   1.090286   0.000000
    29  C    2.416394   1.392678   2.151946   0.000000
    30  H    3.406647   2.159320   2.482668   1.090791   0.000000
    31  H    1.090481   2.158364   2.488941   3.404186   4.307049
                   31
    31  H    0.000000
 Symmetry turned off by external request.
 Stoichiometry    C15H11BF2N2
 Framework group  C1[X(C15H11BF2N2)]
 Deg. of freedom    87
 Full point group                 C1      NOp   1
 Rotational constants (GHZ):           0.5801125           0.2825441           0.2065986
 Leave Link  202 at Tue Feb  1 06:33:51 2022, MaxMem= 11408506880 cpu:               0.1 elap:               0.0
 (Enter /lustre1/prg/gaussian/bin/G16_C01_Linda9.2_SSE4/g16/l301.exe)
 Standard basis: CC-pVDZ (5D, 7F)
 Ernie: Thresh=  0.10000D-02 Tol=  0.10000D-05 Strict=F.
 Ernie:  40 primitive shells out of 495 were deleted.
   335 basis functions,   737 primitive gaussians,   355 cartesian basis functions
    69 alpha electrons       69 beta electrons
       nuclear repulsion energy      1470.3616980773 Hartrees.
 IExCor= 4336 DFT=T Ex+Corr=M062X ExCW=0 ScaHFX=  0.540000
 ScaDFX=  1.000000  1.000000  1.000000  1.000000 ScalE2=  1.000000  1.000000
 IRadAn=      5 IRanWt=     -1 IRanGd=            0 ICorTp=0 IEmpDi=  4
 NAtoms=   31 NActive=   31 NUniq=   31 SFac= 1.00D+00 NAtFMM=   60 NAOKFM=F Big=F
 Integral buffers will be    131072 words long.
 Raffenetti 2 integral format.
 Two-electron integral symmetry is turned off.
 Force inversion solution in PCM.
 ------------------------------------------------------------------------------
 Polarizable Continuum Model (PCM)
 =================================
 Model                : C-PCM.
 Atomic radii         : UFF (Universal Force Field).
 Polarization charges : Total charges.
 Charge compensation  : None.
 Solution method      : Matrix inversion.
 Cavity type          : Scaled VdW (van der Waals Surface) (Alpha=1.100).
 Cavity algorithm     : GePol (No added spheres)
                        Default sphere list used, NSphG=   31.
                        Lebedev-Laikov grids with approx.  5.0 points / Ang**2.
                        Smoothing algorithm: York/Karplus (Gamma=1.0000).
                        Polarization charges: spherical gaussians, with
                                              point-specific exponents (IZeta= 3).
                        Self-potential: point-specific (ISelfS= 7).
                        Self-field    : sphere-specific E.n sum rule (ISelfD= 2).
 1st derivatives      : Analytical E(r).r(x)/FMM algorithm (CHGder, D1EAlg=3).
                        Cavity 1st derivative terms included.
 2nd derivatives      : Analytical E(r).r(xy)/FMM algorithm (CHGder, D2EAlg=3).
                        Cavity 2nd derivative terms included.
 Solvent              : Methanol, Eps=  32.613000 Eps(inf)=   1.765709
 ------------------------------------------------------------------------------
 GePol: Number of generator spheres                  =      31
 GePol: Total number of spheres                      =      31
 GePol: Number of exposed spheres                    =      31 (100.00%)
 GePol: Number of points                             =    2482
 GePol: Average weight of points                     =       0.13
 GePol: Minimum weight of points                     =   0.79D-11
 GePol: Maximum weight of points                     =    0.20577
 GePol: Number of points with low weight             =     149
 GePol: Fraction of low-weight points (<1% of avg)   =       6.00%
 GePol: Cavity surface area                          =    315.576 Ang**2
 GePol: Cavity volume                                =    347.017 Ang**3
 Leave Link  301 at Tue Feb  1 06:33:51 2022, MaxMem= 11408506880 cpu:               1.3 elap:               0.1
@@@@@@@@@@@@@@@@@@@@@@@@@@@@@@@@@@@@@@@@@@@@@@@@@@@@@@@@@@@
@    WARNING: REMOTE HOST IDENTIFICATION HAS CHANGED!     @
@@@@@@@@@@@@@@@@@@@@@@@@@@@@@@@@@@@@@@@@@@@@@@@@@@@@@@@@@@@
IT IS POSSIBLE THAT SOMEONE IS DOING SOMETHING NASTY!
Someone could be eavesdropping on you right now (man-in-the-middle attack)!
It is also possible that a host key has just been changed.
The fingerprint for the ECDSA key sent by the remote host is
SHA256:M4yULT9TxhDV5BPO1pZVupvKkKHa8uDjQnSEXviXJSw.
Please contact your system administrator.
Add correct host key in /lustre2/home/toliste/.ssh/known_hosts to get rid of this message.
Offending ECDSA key in /lustre2/home/toliste/.ssh/known_hosts:151
Password authentication is disabled to avoid man-in-the-middle attacks.
Keyboard-interactive authentication is disabled to avoid man-in-the-middle attacks.
@@@@@@@@@@@@@@@@@@@@@@@@@@@@@@@@@@@@@@@@@@@@@@@@@@@@@@@@@@@
@    WARNING: REMOTE HOST IDENTIFICATION HAS CHANGED!     @
@@@@@@@@@@@@@@@@@@@@@@@@@@@@@@@@@@@@@@@@@@@@@@@@@@@@@@@@@@@
IT IS POSSIBLE THAT SOMEONE IS DOING SOMETHING NASTY!
Someone could be eavesdropping on you right now (man-in-the-middle attack)!
It is also possible that a host key has just been changed.
The fingerprint for the ECDSA key sent by the remote host is
SHA256:6zgCM3dgCve16Dp/6RkC19T31lBN5cM9JsR2Baj34h8.
Please contact your system administrator.
Add correct host key in /lustre2/home/toliste/.ssh/known_hosts to get rid of this message.
Offending ECDSA key in /lustre2/home/toliste/.ssh/known_hosts:129
Password authentication is disabled to avoid man-in-the-middle attacks.
Keyboard-interactive authentication is disabled to avoid man-in-the-middle attacks.
@@@@@@@@@@@@@@@@@@@@@@@@@@@@@@@@@@@@@@@@@@@@@@@@@@@@@@@@@@@
@    WARNING: REMOTE HOST IDENTIFICATION HAS CHANGED!     @
@@@@@@@@@@@@@@@@@@@@@@@@@@@@@@@@@@@@@@@@@@@@@@@@@@@@@@@@@@@
IT IS POSSIBLE THAT SOMEONE IS DOING SOMETHING NASTY!
Someone could be eavesdropping on you right now (man-in-the-middle attack)!
It is also possible that a host key has just been changed.
The fingerprint for the ECDSA key sent by the remote host is
SHA256:UUwO5PXL1B33HJhaRANVDfAbXPAFCg3n0eIbMQ8SsmA.
Please contact your system administrator.
Add correct host key in /lustre2/home/toliste/.ssh/known_hosts to get rid of this message.
Offending ECDSA key in /lustre2/home/toliste/.ssh/known_hosts:152
Password authentication is disabled to avoid man-in-the-middle attacks.
Keyboard-interactive authentication is disabled to avoid man-in-the-middle attacks.
@@@@@@@@@@@@@@@@@@@@@@@@@@@@@@@@@@@@@@@@@@@@@@@@@@@@@@@@@@@
@    WARNING: REMOTE HOST IDENTIFICATION HAS CHANGED!     @
@@@@@@@@@@@@@@@@@@@@@@@@@@@@@@@@@@@@@@@@@@@@@@@@@@@@@@@@@@@
IT IS POSSIBLE THAT SOMEONE IS DOING SOMETHING NASTY!
Someone could be eavesdropping on you right now (man-in-the-middle attack)!
It is also possible that a host key has just been changed.
The fingerprint for the ECDSA key sent by the remote host is
SHA256:+yCn7Por1JJyZxZqPT2vdZd4YCKbfu31iTw0V2f26lk.
Please contact your system administrator.
Add correct host key in /lustre2/home/toliste/.ssh/known_hosts to get rid of this message.
Offending ECDSA key in /lustre2/home/toliste/.ssh/known_hosts:150
Password authentication is disabled to avoid man-in-the-middle attacks.
Keyboard-interactive authentication is disabled to avoid man-in-the-middle attacks.
@@@@@@@@@@@@@@@@@@@@@@@@@@@@@@@@@@@@@@@@@@@@@@@@@@@@@@@@@@@
@    WARNING: REMOTE HOST IDENTIFICATION HAS CHANGED!     @
@@@@@@@@@@@@@@@@@@@@@@@@@@@@@@@@@@@@@@@@@@@@@@@@@@@@@@@@@@@
IT IS POSSIBLE THAT SOMEONE IS DOING SOMETHING NASTY!
Someone could be eavesdropping on you right now (man-in-the-middle attack)!
It is also possible that a host key has just been changed.
The fingerprint for the ECDSA key sent by the remote host is
SHA256:yPArVvj5wOhEloJrCb/xVGzzpZk0QWZ8LITIW4qfddA.
Please contact your system administrator.
Add correct host key in /lustre2/home/toliste/.ssh/known_hosts to get rid of this message.
Offending ECDSA key in /lustre2/home/toliste/.ssh/known_hosts:127
Password authentication is disabled to avoid man-in-the-middle attacks.
Keyboard-interactive authentication is disabled to avoid man-in-the-middle attacks.
Warning: Permanently added 'fizika56.fizika.bullx' (ECDSA) to the list of known hosts.
Warning: Permanently added 'fizika57.fizika.bullx' (ECDSA) to the list of known hosts.
 (Enter /lustre1/prg/gaussian/bin/G16_C01_Linda9.2_SSE4/g16/linda-exe/l302.exel)
 NPDir=0 NMtPBC=     1 NCelOv=     1 NCel=       1 NClECP=     1 NCelD=      1
         NCelK=      1 NCelE2=     1 NClLst=     1 CellRange=     0.0.
 One-electron integrals computed using PRISM.
 NBasis=   335 RedAO= T EigKep=  2.50D-04  NBF=   335
 NBsUse=   335 1.00D-06 EigRej= -1.00D+00 NBFU=   335
 Precomputing XC quadrature grid using
 IXCGrd= 4 IRadAn=           5 IRanWt=          -1 IRanGd=           0 AccXCQ= 0.00D+00.
 Generated NRdTot=       0 NPtTot=           0 NUsed=           0 NTot=          32
 NSgBfM=   354   354   354   354   354 MxSgAt=    31 MxSgA2=    31.
 Leave Link  302 at Tue Feb  1 06:33:55 2022, MaxMem= 11408506880 cpu:              18.8 elap:               1.7
 (Enter /lustre1/prg/gaussian/bin/G16_C01_Linda9.2_SSE4/g16/l303.exe)
 DipDrv:  MaxL=1.
 Leave Link  303 at Tue Feb  1 06:33:56 2022, MaxMem= 11408506880 cpu:               1.6 elap:               0.3
@@@@@@@@@@@@@@@@@@@@@@@@@@@@@@@@@@@@@@@@@@@@@@@@@@@@@@@@@@@
@    WARNING: REMOTE HOST IDENTIFICATION HAS CHANGED!     @
@@@@@@@@@@@@@@@@@@@@@@@@@@@@@@@@@@@@@@@@@@@@@@@@@@@@@@@@@@@
IT IS POSSIBLE THAT SOMEONE IS DOING SOMETHING NASTY!
Someone could be eavesdropping on you right now (man-in-the-middle attack)!
It is also possible that a host key has just been changed.
The fingerprint for the ECDSA key sent by the remote host is
SHA256:6zgCM3dgCve16Dp/6RkC19T31lBN5cM9JsR2Baj34h8.
Please contact your system administrator.
Add correct host key in /lustre2/home/toliste/.ssh/known_hosts to get rid of this message.
Offending ECDSA key in /lustre2/home/toliste/.ssh/known_hosts:129
Password authentication is disabled to avoid man-in-the-middle attacks.
Keyboard-interactive authentication is disabled to avoid man-in-the-middle attacks.
@@@@@@@@@@@@@@@@@@@@@@@@@@@@@@@@@@@@@@@@@@@@@@@@@@@@@@@@@@@
@    WARNING: REMOTE HOST IDENTIFICATION HAS CHANGED!     @
@@@@@@@@@@@@@@@@@@@@@@@@@@@@@@@@@@@@@@@@@@@@@@@@@@@@@@@@@@@
IT IS POSSIBLE THAT SOMEONE IS DOING SOMETHING NASTY!
Someone could be eavesdropping on you right now (man-in-the-middle attack)!
It is also possible that a host key has just been changed.
The fingerprint for the ECDSA key sent by the remote host is
SHA256:M4yULT9TxhDV5BPO1pZVupvKkKHa8uDjQnSEXviXJSw.
Please contact your system administrator.
Add correct host key in /lustre2/home/toliste/.ssh/known_hosts to get rid of this message.
Offending ECDSA key in /lustre2/home/toliste/.ssh/known_hosts:151
Password authentication is disabled to avoid man-in-the-middle attacks.
Keyboard-interactive authentication is disabled to avoid man-in-the-middle attacks.
@@@@@@@@@@@@@@@@@@@@@@@@@@@@@@@@@@@@@@@@@@@@@@@@@@@@@@@@@@@
@    WARNING: REMOTE HOST IDENTIFICATION HAS CHANGED!     @
@@@@@@@@@@@@@@@@@@@@@@@@@@@@@@@@@@@@@@@@@@@@@@@@@@@@@@@@@@@
IT IS POSSIBLE THAT SOMEONE IS DOING SOMETHING NASTY!
Someone could be eavesdropping on you right now (man-in-the-middle attack)!
It is also possible that a host key has just been changed.
The fingerprint for the ECDSA key sent by the remote host is
SHA256:+yCn7Por1JJyZxZqPT2vdZd4YCKbfu31iTw0V2f26lk.
Please contact your system administrator.
Add correct host key in /lustre2/home/toliste/.ssh/known_hosts to get rid of this message.
Offending ECDSA key in /lustre2/home/toliste/.ssh/known_hosts:150
Password authentication is disabled to avoid man-in-the-middle attacks.
Keyboard-interactive authentication is disabled to avoid man-in-the-middle attacks.
@@@@@@@@@@@@@@@@@@@@@@@@@@@@@@@@@@@@@@@@@@@@@@@@@@@@@@@@@@@
@    WARNING: REMOTE HOST IDENTIFICATION HAS CHANGED!     @
@@@@@@@@@@@@@@@@@@@@@@@@@@@@@@@@@@@@@@@@@@@@@@@@@@@@@@@@@@@
IT IS POSSIBLE THAT SOMEONE IS DOING SOMETHING NASTY!
Someone could be eavesdropping on you right now (man-in-the-middle attack)!
It is also possible that a host key has just been changed.
The fingerprint for the ECDSA key sent by the remote host is
SHA256:yPArVvj5wOhEloJrCb/xVGzzpZk0QWZ8LITIW4qfddA.
Please contact your system administrator.
Add correct host key in /lustre2/home/toliste/.ssh/known_hosts to get rid of this message.
Offending ECDSA key in /lustre2/home/toliste/.ssh/known_hosts:127
Password authentication is disabled to avoid man-in-the-middle attacks.
Keyboard-interactive authentication is disabled to avoid man-in-the-middle attacks.
@@@@@@@@@@@@@@@@@@@@@@@@@@@@@@@@@@@@@@@@@@@@@@@@@@@@@@@@@@@
@    WARNING: REMOTE HOST IDENTIFICATION HAS CHANGED!     @
@@@@@@@@@@@@@@@@@@@@@@@@@@@@@@@@@@@@@@@@@@@@@@@@@@@@@@@@@@@
IT IS POSSIBLE THAT SOMEONE IS DOING SOMETHING NASTY!
Someone could be eavesdropping on you right now (man-in-the-middle attack)!
It is also possible that a host key has just been changed.
The fingerprint for the ECDSA key sent by the remote host is
SHA256:UUwO5PXL1B33HJhaRANVDfAbXPAFCg3n0eIbMQ8SsmA.
Please contact your system administrator.
Add correct host key in /lustre2/home/toliste/.ssh/known_hosts to get rid of this message.
Offending ECDSA key in /lustre2/home/toliste/.ssh/known_hosts:152
Password authentication is disabled to avoid man-in-the-middle attacks.
Keyboard-interactive authentication is disabled to avoid man-in-the-middle attacks.
 (Enter /lustre1/prg/gaussian/bin/G16_C01_Linda9.2_SSE4/g16/linda-exe/l401.exel)
 ExpMin= 9.54D-02 ExpMax= 1.47D+04 ExpMxC= 5.03D+02 IAcc=3 IRadAn=         5 AccDes= 0.00D+00
 Harris functional with IExCor= 1009 and IRadAn=       5 diagonalized for initial guess.
 HarFok:  IExCor= 1009 AccDes= 0.00D+00 IRadAn=         5 IDoV= 1 UseB2=F ITyADJ=14
 ICtDFT=  3500011 ScaDFX=  1.000000  1.000000  1.000000  1.000000
 FoFCou: FMM=F IPFlag=           0 FMFlag=      100000 FMFlg1=           0
         NFxFlg=           0 DoJE=T BraDBF=F KetDBF=T FulRan=T
         wScrn=  0.000000 ICntrl=       500 IOpCl=  0 I1Cent=   200000004 NGrid=           0
         NMat0=    1 NMatS0=      1 NMatT0=    0 NMatD0=    1 NMtDS0=    0 NMtDT0=    0
 Symmetry not used in FoFCou.
 Harris En= -911.580627043332    
 JPrj=0 DoOrth=F DoCkMO=F.
 Leave Link  401 at Tue Feb  1 06:34:01 2022, MaxMem= 11408506880 cpu:              38.0 elap:               3.4
@@@@@@@@@@@@@@@@@@@@@@@@@@@@@@@@@@@@@@@@@@@@@@@@@@@@@@@@@@@
@    WARNING: REMOTE HOST IDENTIFICATION HAS CHANGED!     @
@@@@@@@@@@@@@@@@@@@@@@@@@@@@@@@@@@@@@@@@@@@@@@@@@@@@@@@@@@@
IT IS POSSIBLE THAT SOMEONE IS DOING SOMETHING NASTY!
Someone could be eavesdropping on you right now (man-in-the-middle attack)!
It is also possible that a host key has just been changed.
The fingerprint for the ECDSA key sent by the remote host is
SHA256:yPArVvj5wOhEloJrCb/xVGzzpZk0QWZ8LITIW4qfddA.
Please contact your system administrator.
Add correct host key in /lustre2/home/toliste/.ssh/known_hosts to get rid of this message.
Offending ECDSA key in /lustre2/home/toliste/.ssh/known_hosts:127
Password authentication is disabled to avoid man-in-the-middle attacks.
Keyboard-interactive authentication is disabled to avoid man-in-the-middle attacks.
@@@@@@@@@@@@@@@@@@@@@@@@@@@@@@@@@@@@@@@@@@@@@@@@@@@@@@@@@@@
@    WARNING: REMOTE HOST IDENTIFICATION HAS CHANGED!     @
@@@@@@@@@@@@@@@@@@@@@@@@@@@@@@@@@@@@@@@@@@@@@@@@@@@@@@@@@@@
IT IS POSSIBLE THAT SOMEONE IS DOING SOMETHING NASTY!
Someone could be eavesdropping on you right now (man-in-the-middle attack)!
It is also possible that a host key has just been changed.
The fingerprint for the ECDSA key sent by the remote host is
SHA256:+yCn7Por1JJyZxZqPT2vdZd4YCKbfu31iTw0V2f26lk.
Please contact your system administrator.
Add correct host key in /lustre2/home/toliste/.ssh/known_hosts to get rid of this message.
Offending ECDSA key in /lustre2/home/toliste/.ssh/known_hosts:150
Password authentication is disabled to avoid man-in-the-middle attacks.
Keyboard-interactive authentication is disabled to avoid man-in-the-middle attacks.
@@@@@@@@@@@@@@@@@@@@@@@@@@@@@@@@@@@@@@@@@@@@@@@@@@@@@@@@@@@
@    WARNING: REMOTE HOST IDENTIFICATION HAS CHANGED!     @
@@@@@@@@@@@@@@@@@@@@@@@@@@@@@@@@@@@@@@@@@@@@@@@@@@@@@@@@@@@
IT IS POSSIBLE THAT SOMEONE IS DOING SOMETHING NASTY!
Someone could be eavesdropping on you right now (man-in-the-middle attack)!
It is also possible that a host key has just been changed.
The fingerprint for the ECDSA key sent by the remote host is
SHA256:6zgCM3dgCve16Dp/6RkC19T31lBN5cM9JsR2Baj34h8.
Please contact your system administrator.
Add correct host key in /lustre2/home/toliste/.ssh/known_hosts to get rid of this message.
Offending ECDSA key in /lustre2/home/toliste/.ssh/known_hosts:129
Password authentication is disabled to avoid man-in-the-middle attacks.
Keyboard-interactive authentication is disabled to avoid man-in-the-middle attacks.
@@@@@@@@@@@@@@@@@@@@@@@@@@@@@@@@@@@@@@@@@@@@@@@@@@@@@@@@@@@
@    WARNING: REMOTE HOST IDENTIFICATION HAS CHANGED!     @
@@@@@@@@@@@@@@@@@@@@@@@@@@@@@@@@@@@@@@@@@@@@@@@@@@@@@@@@@@@
IT IS POSSIBLE THAT SOMEONE IS DOING SOMETHING NASTY!
Someone could be eavesdropping on you right now (man-in-the-middle attack)!
It is also possible that a host key has just been changed.
The fingerprint for the ECDSA key sent by the remote host is
SHA256:M4yULT9TxhDV5BPO1pZVupvKkKHa8uDjQnSEXviXJSw.
Please contact your system administrator.
Add correct host key in /lustre2/home/toliste/.ssh/known_hosts to get rid of this message.
Offending ECDSA key in /lustre2/home/toliste/.ssh/known_hosts:151
Password authentication is disabled to avoid man-in-the-middle attacks.
Keyboard-interactive authentication is disabled to avoid man-in-the-middle attacks.
@@@@@@@@@@@@@@@@@@@@@@@@@@@@@@@@@@@@@@@@@@@@@@@@@@@@@@@@@@@
@    WARNING: REMOTE HOST IDENTIFICATION HAS CHANGED!     @
@@@@@@@@@@@@@@@@@@@@@@@@@@@@@@@@@@@@@@@@@@@@@@@@@@@@@@@@@@@
IT IS POSSIBLE THAT SOMEONE IS DOING SOMETHING NASTY!
Someone could be eavesdropping on you right now (man-in-the-middle attack)!
It is also possible that a host key has just been changed.
The fingerprint for the ECDSA key sent by the remote host is
SHA256:UUwO5PXL1B33HJhaRANVDfAbXPAFCg3n0eIbMQ8SsmA.
Please contact your system administrator.
Add correct host key in /lustre2/home/toliste/.ssh/known_hosts to get rid of this message.
Offending ECDSA key in /lustre2/home/toliste/.ssh/known_hosts:152
Password authentication is disabled to avoid man-in-the-middle attacks.
Keyboard-interactive authentication is disabled to avoid man-in-the-middle attacks.
 (Enter /lustre1/prg/gaussian/bin/G16_C01_Linda9.2_SSE4/g16/linda-exe/l502.exel)
 Two-electron integral symmetry not used.
 Closed shell SCF:
 Using DIIS extrapolation, IDIIS=  1040.
 NGot= 11408506880 LenX= 11408246955 LenY= 11408120489
 Requested convergence on RMS density matrix=1.00D-08 within 128 cycles.
 Requested convergence on MAX density matrix=1.00D-06.
 Requested convergence on             energy=1.00D-06.
 No special actions if energy rises.
 Fock matrices will be formed incrementally for  20 cycles.

 Cycle   1  Pass 1  IDiag  1:
 FoFJK:  IHMeth= 1 ICntrl=       0 DoSepK=F KAlg= 0 I1Cent=           0 FoldK=F
 IRaf= 870000000 NMat=       1 IRICut=       1 DoRegI=T DoRafI=F ISym2E= 0 IDoP0=0 IntGTp=1.
 FoFCou: FMM=F IPFlag=           0 FMFlag=      100000 FMFlg1=           0
         NFxFlg=           0 DoJE=F BraDBF=F KetDBF=F FulRan=T
         wScrn=  0.000000 ICntrl=         0 IOpCl=  0 I1Cent=           0 NGrid=           0
         NMat0=    1 NMatS0=      1 NMatT0=    0 NMatD0=    1 NMtDS0=    0 NMtDT0=    0
 Symmetry not used in FoFCou.
 Inv3:  Mode=1 IEnd=    18480972.
 Iteration    1 A*A^-1 deviation from unit magnitude is 8.66D-15 for    618.
 Iteration    1 A*A^-1 deviation from orthogonality  is 3.47D-15 for   2458   1193.
 Iteration    1 A^-1*A deviation from unit magnitude is 8.66D-15 for    618.
 Iteration    1 A^-1*A deviation from orthogonality  is 1.74D-15 for   1469    413.
 E= -911.877701244916    
 DIIS: error= 2.44D-02 at cycle   1 NSaved=   1.
 NSaved= 1 IEnMin= 1 EnMin= -911.877701244916     IErMin= 1 ErrMin= 2.44D-02
 ErrMax= 2.44D-02  0.00D+00 EMaxC= 1.00D-01 BMatC= 3.32D-01 BMatP= 3.32D-01
 IDIUse=3 WtCom= 7.56D-01 WtEn= 2.44D-01
 Coeff-Com:  0.100D+01
 Coeff-En:   0.100D+01
 Coeff:      0.100D+01
 Gap=     0.177 Goal=   None    Shift=    0.000
 GapD=    0.177 DampG=1.000 DampE=0.500 DampFc=0.5000 IDamp=-1.
 Damping current iteration by 5.00D-01
 RMSDP=3.58D-03 MaxDP=9.71D-02              OVMax= 1.45D-01

 Cycle   2  Pass 1  IDiag  1:
 RMSU=  1.72D-03    CP:  9.74D-01
 E= -912.038409239415     Delta-E=       -0.160707994499 Rises=F Damp=T
 DIIS: error= 7.63D-03 at cycle   2 NSaved=   2.
 NSaved= 2 IEnMin= 2 EnMin= -912.038409239415     IErMin= 2 ErrMin= 7.63D-03
 ErrMax= 7.63D-03  0.00D+00 EMaxC= 1.00D-01 BMatC= 2.85D-02 BMatP= 3.32D-01
 IDIUse=3 WtCom= 9.24D-01 WtEn= 7.63D-02
 Coeff-Com: -0.108D+00 0.111D+01
 Coeff-En:   0.000D+00 0.100D+01
 Coeff:     -0.100D+00 0.110D+01
 Gap=     0.186 Goal=   None    Shift=    0.000
 RMSDP=1.25D-03 MaxDP=6.17D-02 DE=-1.61D-01 OVMax= 8.53D-02

 Cycle   3  Pass 1  IDiag  1:
 RMSU=  9.91D-04    CP:  9.54D-01  1.39D+00
 E= -912.181700839527     Delta-E=       -0.143291600112 Rises=F Damp=F
 DIIS: error= 5.72D-03 at cycle   3 NSaved=   3.
 NSaved= 3 IEnMin= 3 EnMin= -912.181700839527     IErMin= 3 ErrMin= 5.72D-03
 ErrMax= 5.72D-03  0.00D+00 EMaxC= 1.00D-01 BMatC= 1.27D-02 BMatP= 2.85D-02
 IDIUse=3 WtCom= 9.43D-01 WtEn= 5.72D-02
 Coeff-Com: -0.109D+00 0.466D+00 0.643D+00
 Coeff-En:   0.000D+00 0.000D+00 0.100D+01
 Coeff:     -0.103D+00 0.439D+00 0.664D+00
 Gap=     0.177 Goal=   None    Shift=    0.000
 RMSDP=4.33D-04 MaxDP=2.04D-02 DE=-1.43D-01 OVMax= 4.48D-02

 Cycle   4  Pass 1  IDiag  1:
 RMSU=  3.16D-04    CP:  9.56D-01  1.42D+00  7.09D-01
 E= -912.191423797287     Delta-E=       -0.009722957760 Rises=F Damp=F
 DIIS: error= 2.50D-03 at cycle   4 NSaved=   4.
 NSaved= 4 IEnMin= 4 EnMin= -912.191423797287     IErMin= 4 ErrMin= 2.50D-03
 ErrMax= 2.50D-03  0.00D+00 EMaxC= 1.00D-01 BMatC= 2.55D-03 BMatP= 1.27D-02
 IDIUse=3 WtCom= 9.75D-01 WtEn= 2.50D-02
 Coeff-Com: -0.355D-01 0.940D-01 0.347D+00 0.595D+00
 Coeff-En:   0.000D+00 0.000D+00 0.163D+00 0.837D+00
 Coeff:     -0.346D-01 0.917D-01 0.342D+00 0.601D+00
 Gap=     0.180 Goal=   None    Shift=    0.000
 RMSDP=1.52D-04 MaxDP=7.89D-03 DE=-9.72D-03 OVMax= 1.85D-02

 Cycle   5  Pass 1  IDiag  1:
 RMSU=  6.33D-05    CP:  9.55D-01  1.42D+00  7.94D-01  6.55D-01
 E= -912.193930283653     Delta-E=       -0.002506486366 Rises=F Damp=F
 DIIS: error= 3.20D-04 at cycle   5 NSaved=   5.
 NSaved= 5 IEnMin= 5 EnMin= -912.193930283653     IErMin= 5 ErrMin= 3.20D-04
 ErrMax= 3.20D-04  0.00D+00 EMaxC= 1.00D-01 BMatC= 8.35D-05 BMatP= 2.55D-03
 IDIUse=3 WtCom= 9.97D-01 WtEn= 3.20D-03
 Coeff-Com: -0.828D-02 0.131D-01 0.103D+00 0.248D+00 0.644D+00
 Coeff-En:   0.000D+00 0.000D+00 0.000D+00 0.000D+00 0.100D+01
 Coeff:     -0.825D-02 0.131D-01 0.103D+00 0.247D+00 0.645D+00
 Gap=     0.180 Goal=   None    Shift=    0.000
 RMSDP=2.70D-05 MaxDP=1.75D-03 DE=-2.51D-03 OVMax= 2.93D-03

 Cycle   6  Pass 1  IDiag  1:
 RMSU=  1.81D-05    CP:  9.55D-01  1.43D+00  7.96D-01  6.89D-01  7.53D-01
 E= -912.194005404721     Delta-E=       -0.000075121068 Rises=F Damp=F
 DIIS: error= 1.07D-04 at cycle   6 NSaved=   6.
 NSaved= 6 IEnMin= 6 EnMin= -912.194005404721     IErMin= 6 ErrMin= 1.07D-04
 ErrMax= 1.07D-04  0.00D+00 EMaxC= 1.00D-01 BMatC= 5.07D-06 BMatP= 8.35D-05
 IDIUse=3 WtCom= 9.99D-01 WtEn= 1.07D-03
 Coeff-Com: -0.143D-02 0.257D-03 0.214D-01 0.645D-01 0.261D+00 0.655D+00
 Coeff-En:   0.000D+00 0.000D+00 0.000D+00 0.000D+00 0.000D+00 0.100D+01
 Coeff:     -0.143D-02 0.257D-03 0.214D-01 0.644D-01 0.260D+00 0.655D+00
 Gap=     0.180 Goal=   None    Shift=    0.000
 RMSDP=6.97D-06 MaxDP=2.98D-04 DE=-7.51D-05 OVMax= 6.01D-04

 Cycle   7  Pass 1  IDiag  1:
 RMSU=  5.84D-06    CP:  9.55D-01  1.43D+00  7.98D-01  6.90D-01  7.96D-01
                    CP:  8.69D-01
 E= -912.194010163711     Delta-E=       -0.000004758990 Rises=F Damp=F
 DIIS: error= 3.34D-05 at cycle   7 NSaved=   7.
 NSaved= 7 IEnMin= 7 EnMin= -912.194010163711     IErMin= 7 ErrMin= 3.34D-05
 ErrMax= 3.34D-05  0.00D+00 EMaxC= 1.00D-01 BMatC= 3.25D-07 BMatP= 5.07D-06
 IDIUse=1 WtCom= 1.00D+00 WtEn= 0.00D+00
 Coeff-Com:  0.393D-03-0.130D-02-0.402D-02-0.504D-02 0.182D-01 0.175D+00
 Coeff-Com:  0.816D+00
 Coeff:      0.393D-03-0.130D-02-0.402D-02-0.504D-02 0.182D-01 0.175D+00
 Coeff:      0.816D+00
 Gap=     0.180 Goal=   None    Shift=    0.000
 RMSDP=3.07D-06 MaxDP=1.14D-04 DE=-4.76D-06 OVMax= 3.84D-04

 Cycle   8  Pass 1  IDiag  1:
 RMSU=  2.24D-06    CP:  9.55D-01  1.43D+00  7.98D-01  6.94D-01  8.03D-01
                    CP:  9.63D-01  9.93D-01
 E= -912.194010508360     Delta-E=       -0.000000344649 Rises=F Damp=F
 DIIS: error= 1.98D-05 at cycle   8 NSaved=   8.
 NSaved= 8 IEnMin= 8 EnMin= -912.194010508360     IErMin= 8 ErrMin= 1.98D-05
 ErrMax= 1.98D-05  0.00D+00 EMaxC= 1.00D-01 BMatC= 1.38D-07 BMatP= 3.25D-07
 IDIUse=1 WtCom= 1.00D+00 WtEn= 0.00D+00
 Coeff-Com:  0.447D-03-0.755D-03-0.543D-02-0.126D-01-0.302D-01-0.169D-01
 Coeff-Com:  0.445D+00 0.620D+00
 Coeff:      0.447D-03-0.755D-03-0.543D-02-0.126D-01-0.302D-01-0.169D-01
 Coeff:      0.445D+00 0.620D+00
 Gap=     0.180 Goal=   None    Shift=    0.000
 RMSDP=1.31D-06 MaxDP=8.49D-05 DE=-3.45D-07 OVMax= 1.67D-04

 Cycle   9  Pass 1  IDiag  1:
 RMSU=  7.49D-07    CP:  9.55D-01  1.43D+00  7.98D-01  6.94D-01  8.10D-01
                    CP:  9.79D-01  1.09D+00  7.03D-01
 E= -912.194010664944     Delta-E=       -0.000000156584 Rises=F Damp=F
 DIIS: error= 2.51D-06 at cycle   9 NSaved=   9.
 NSaved= 9 IEnMin= 9 EnMin= -912.194010664944     IErMin= 9 ErrMin= 2.51D-06
 ErrMax= 2.51D-06  0.00D+00 EMaxC= 1.00D-01 BMatC= 3.86D-09 BMatP= 1.38D-07
 IDIUse=1 WtCom= 1.00D+00 WtEn= 0.00D+00
 Coeff-Com:  0.966D-04-0.115D-03-0.121D-02-0.312D-02-0.947D-02-0.177D-01
 Coeff-Com:  0.699D-01 0.180D+00 0.781D+00
 Coeff:      0.966D-04-0.115D-03-0.121D-02-0.312D-02-0.947D-02-0.177D-01
 Coeff:      0.699D-01 0.180D+00 0.781D+00
 Gap=     0.180 Goal=   None    Shift=    0.000
 RMSDP=3.08D-07 MaxDP=1.09D-05 DE=-1.57D-07 OVMax= 3.30D-05

 Cycle  10  Pass 1  IDiag  1:
 RMSU=  2.15D-07    CP:  9.55D-01  1.43D+00  7.98D-01  6.94D-01  8.10D-01
                    CP:  9.84D-01  1.11D+00  7.72D-01  9.68D-01
 E= -912.194010670374     Delta-E=       -0.000000005431 Rises=F Damp=F
 DIIS: error= 1.01D-06 at cycle  10 NSaved=  10.
 NSaved=10 IEnMin=10 EnMin= -912.194010670374     IErMin=10 ErrMin= 1.01D-06
 ErrMax= 1.01D-06  0.00D+00 EMaxC= 1.00D-01 BMatC= 7.13D-10 BMatP= 3.86D-09
 IDIUse=1 WtCom= 1.00D+00 WtEn= 0.00D+00
 Coeff-Com: -0.137D-04 0.409D-04 0.150D-03 0.257D-03-0.310D-03-0.575D-02
 Coeff-Com: -0.256D-01-0.699D-02 0.299D+00 0.740D+00
 Coeff:     -0.137D-04 0.409D-04 0.150D-03 0.257D-03-0.310D-03-0.575D-02
 Coeff:     -0.256D-01-0.699D-02 0.299D+00 0.740D+00
 Gap=     0.180 Goal=   None    Shift=    0.000
 RMSDP=1.16D-07 MaxDP=5.36D-06 DE=-5.43D-09 OVMax= 1.43D-05

 Cycle  11  Pass 1  IDiag  1:
 RMSU=  8.04D-08    CP:  9.55D-01  1.43D+00  7.98D-01  6.94D-01  8.10D-01
                    CP:  9.86D-01  1.11D+00  7.85D-01  1.05D+00  9.26D-01
 E= -912.194010671211     Delta-E=       -0.000000000836 Rises=F Damp=F
 DIIS: error= 3.68D-07 at cycle  11 NSaved=  11.
 NSaved=11 IEnMin=11 EnMin= -912.194010671211     IErMin=11 ErrMin= 3.68D-07
 ErrMax= 3.68D-07  0.00D+00 EMaxC= 1.00D-01 BMatC= 8.74D-11 BMatP= 7.13D-10
 IDIUse=1 WtCom= 1.00D+00 WtEn= 0.00D+00
 Coeff-Com: -0.194D-04 0.330D-04 0.230D-03 0.560D-03 0.121D-02 0.952D-04
 Coeff-Com: -0.200D-01-0.299D-01 0.164D-01 0.298D+00 0.734D+00
 Coeff:     -0.194D-04 0.330D-04 0.230D-03 0.560D-03 0.121D-02 0.952D-04
 Coeff:     -0.200D-01-0.299D-01 0.164D-01 0.298D+00 0.734D+00
 Gap=     0.180 Goal=   None    Shift=    0.000
 RMSDP=4.08D-08 MaxDP=1.53D-06 DE=-8.36D-10 OVMax= 4.01D-06

 Cycle  12  Pass 1  IDiag  1:
 RMSU=  2.45D-08    CP:  9.55D-01  1.43D+00  7.98D-01  6.94D-01  8.11D-01
                    CP:  9.86D-01  1.11D+00  7.86D-01  1.08D+00  1.02D+00
                    CP:  8.96D-01
 E= -912.194010671352     Delta-E=       -0.000000000141 Rises=F Damp=F
 DIIS: error= 7.35D-08 at cycle  12 NSaved=  12.
 NSaved=12 IEnMin=12 EnMin= -912.194010671352     IErMin=12 ErrMin= 7.35D-08
 ErrMax= 7.35D-08  0.00D+00 EMaxC= 1.00D-01 BMatC= 2.98D-12 BMatP= 8.74D-11
 IDIUse=1 WtCom= 1.00D+00 WtEn= 0.00D+00
 Coeff-Com: -0.401D-05 0.602D-05 0.462D-04 0.122D-03 0.301D-03 0.338D-03
 Coeff-Com: -0.293D-02-0.694D-02-0.986D-02 0.338D-01 0.180D+00 0.805D+00
 Coeff:     -0.401D-05 0.602D-05 0.462D-04 0.122D-03 0.301D-03 0.338D-03
 Coeff:     -0.293D-02-0.694D-02-0.986D-02 0.338D-01 0.180D+00 0.805D+00
 Gap=     0.180 Goal=   None    Shift=    0.000
 RMSDP=8.93D-09 MaxDP=2.93D-07 DE=-1.41D-10 OVMax= 1.17D-06

 Error on total polarization charges =  0.01104
 SCF Done:  E(RM062X) =  -912.194010671     A.U. after   12 cycles
            NFock= 12  Conv=0.89D-08     -V/T= 2.0061
 KE= 9.066923784874D+02 PE=-5.070736511179D+03 EE= 1.781488423943D+03
 Leave Link  502 at Tue Feb  1 06:35:13 2022, MaxMem= 11408506880 cpu:             773.4 elap:              68.5
 (Enter /lustre1/prg/gaussian/bin/G16_C01_Linda9.2_SSE4/g16/l801.exe)
 DoSCS=F DFT=T ScalE2(SS,OS)=  1.000000  1.000000
 Range of M.O.s used for correlation:     1   335
 NBasis=   335 NAE=    69 NBE=    69 NFC=     0 NFV=     0
 NROrb=    335 NOA=    69 NOB=    69 NVA=   266 NVB=   266

 **** Warning!!: The largest alpha MO coefficient is  0.11754738D+02

 Leave Link  801 at Tue Feb  1 06:35:13 2022, MaxMem= 11408506880 cpu:               0.5 elap:               0.1
@@@@@@@@@@@@@@@@@@@@@@@@@@@@@@@@@@@@@@@@@@@@@@@@@@@@@@@@@@@
@    WARNING: REMOTE HOST IDENTIFICATION HAS CHANGED!     @
@@@@@@@@@@@@@@@@@@@@@@@@@@@@@@@@@@@@@@@@@@@@@@@@@@@@@@@@@@@
IT IS POSSIBLE THAT SOMEONE IS DOING SOMETHING NASTY!
Someone could be eavesdropping on you right now (man-in-the-middle attack)!
It is also possible that a host key has just been changed.
The fingerprint for the ECDSA key sent by the remote host is
SHA256:+yCn7Por1JJyZxZqPT2vdZd4YCKbfu31iTw0V2f26lk.
Please contact your system administrator.
Add correct host key in /lustre2/home/toliste/.ssh/known_hosts to get rid of this message.
Offending ECDSA key in /lustre2/home/toliste/.ssh/known_hosts:150
Password authentication is disabled to avoid man-in-the-middle attacks.
Keyboard-interactive authentication is disabled to avoid man-in-the-middle attacks.
@@@@@@@@@@@@@@@@@@@@@@@@@@@@@@@@@@@@@@@@@@@@@@@@@@@@@@@@@@@
@    WARNING: REMOTE HOST IDENTIFICATION HAS CHANGED!     @
@@@@@@@@@@@@@@@@@@@@@@@@@@@@@@@@@@@@@@@@@@@@@@@@@@@@@@@@@@@
IT IS POSSIBLE THAT SOMEONE IS DOING SOMETHING NASTY!
Someone could be eavesdropping on you right now (man-in-the-middle attack)!
It is also possible that a host key has just been changed.
The fingerprint for the ECDSA key sent by the remote host is
SHA256:6zgCM3dgCve16Dp/6RkC19T31lBN5cM9JsR2Baj34h8.
Please contact your system administrator.
Add correct host key in /lustre2/home/toliste/.ssh/known_hosts to get rid of this message.
Offending ECDSA key in /lustre2/home/toliste/.ssh/known_hosts:129
Password authentication is disabled to avoid man-in-the-middle attacks.
Keyboard-interactive authentication is disabled to avoid man-in-the-middle attacks.
@@@@@@@@@@@@@@@@@@@@@@@@@@@@@@@@@@@@@@@@@@@@@@@@@@@@@@@@@@@
@    WARNING: REMOTE HOST IDENTIFICATION HAS CHANGED!     @
@@@@@@@@@@@@@@@@@@@@@@@@@@@@@@@@@@@@@@@@@@@@@@@@@@@@@@@@@@@
IT IS POSSIBLE THAT SOMEONE IS DOING SOMETHING NASTY!
Someone could be eavesdropping on you right now (man-in-the-middle attack)!
It is also possible that a host key has just been changed.
The fingerprint for the ECDSA key sent by the remote host is
SHA256:UUwO5PXL1B33HJhaRANVDfAbXPAFCg3n0eIbMQ8SsmA.
Please contact your system administrator.
Add correct host key in /lustre2/home/toliste/.ssh/known_hosts to get rid of this message.
Offending ECDSA key in /lustre2/home/toliste/.ssh/known_hosts:152
Password authentication is disabled to avoid man-in-the-middle attacks.
Keyboard-interactive authentication is disabled to avoid man-in-the-middle attacks.
@@@@@@@@@@@@@@@@@@@@@@@@@@@@@@@@@@@@@@@@@@@@@@@@@@@@@@@@@@@
@    WARNING: REMOTE HOST IDENTIFICATION HAS CHANGED!     @
@@@@@@@@@@@@@@@@@@@@@@@@@@@@@@@@@@@@@@@@@@@@@@@@@@@@@@@@@@@
IT IS POSSIBLE THAT SOMEONE IS DOING SOMETHING NASTY!
Someone could be eavesdropping on you right now (man-in-the-middle attack)!
It is also possible that a host key has just been changed.
The fingerprint for the ECDSA key sent by the remote host is
SHA256:yPArVvj5wOhEloJrCb/xVGzzpZk0QWZ8LITIW4qfddA.
Please contact your system administrator.
Add correct host key in /lustre2/home/toliste/.ssh/known_hosts to get rid of this message.
Offending ECDSA key in /lustre2/home/toliste/.ssh/known_hosts:127
Password authentication is disabled to avoid man-in-the-middle attacks.
Keyboard-interactive authentication is disabled to avoid man-in-the-middle attacks.
@@@@@@@@@@@@@@@@@@@@@@@@@@@@@@@@@@@@@@@@@@@@@@@@@@@@@@@@@@@
@    WARNING: REMOTE HOST IDENTIFICATION HAS CHANGED!     @
@@@@@@@@@@@@@@@@@@@@@@@@@@@@@@@@@@@@@@@@@@@@@@@@@@@@@@@@@@@
IT IS POSSIBLE THAT SOMEONE IS DOING SOMETHING NASTY!
Someone could be eavesdropping on you right now (man-in-the-middle attack)!
It is also possible that a host key has just been changed.
The fingerprint for the ECDSA key sent by the remote host is
SHA256:M4yULT9TxhDV5BPO1pZVupvKkKHa8uDjQnSEXviXJSw.
Please contact your system administrator.
Add correct host key in /lustre2/home/toliste/.ssh/known_hosts to get rid of this message.
Offending ECDSA key in /lustre2/home/toliste/.ssh/known_hosts:151
Password authentication is disabled to avoid man-in-the-middle attacks.
Keyboard-interactive authentication is disabled to avoid man-in-the-middle attacks.
 (Enter /lustre1/prg/gaussian/bin/G16_C01_Linda9.2_SSE4/g16/linda-exe/l1101.exel)
 Using compressed storage, NAtomX=    31.
 Will process     32 centers per pass.
 Leave Link 1101 at Tue Feb  1 06:35:20 2022, MaxMem= 11408506880 cpu:              50.0 elap:               4.5
 (Enter /lustre1/prg/gaussian/bin/G16_C01_Linda9.2_SSE4/g16/l1102.exe)
 Symmetrizing basis deriv contribution to polar:
 IMax=3 JMax=2 DiffMx= 0.00D+00
 Leave Link 1102 at Tue Feb  1 06:35:21 2022, MaxMem= 11408506880 cpu:               1.3 elap:               0.1
@@@@@@@@@@@@@@@@@@@@@@@@@@@@@@@@@@@@@@@@@@@@@@@@@@@@@@@@@@@
@    WARNING: REMOTE HOST IDENTIFICATION HAS CHANGED!     @
@@@@@@@@@@@@@@@@@@@@@@@@@@@@@@@@@@@@@@@@@@@@@@@@@@@@@@@@@@@
IT IS POSSIBLE THAT SOMEONE IS DOING SOMETHING NASTY!
Someone could be eavesdropping on you right now (man-in-the-middle attack)!
It is also possible that a host key has just been changed.
The fingerprint for the ECDSA key sent by the remote host is
SHA256:6zgCM3dgCve16Dp/6RkC19T31lBN5cM9JsR2Baj34h8.
Please contact your system administrator.
Add correct host key in /lustre2/home/toliste/.ssh/known_hosts to get rid of this message.
Offending ECDSA key in /lustre2/home/toliste/.ssh/known_hosts:129
Password authentication is disabled to avoid man-in-the-middle attacks.
Keyboard-interactive authentication is disabled to avoid man-in-the-middle attacks.
@@@@@@@@@@@@@@@@@@@@@@@@@@@@@@@@@@@@@@@@@@@@@@@@@@@@@@@@@@@
@    WARNING: REMOTE HOST IDENTIFICATION HAS CHANGED!     @
@@@@@@@@@@@@@@@@@@@@@@@@@@@@@@@@@@@@@@@@@@@@@@@@@@@@@@@@@@@
IT IS POSSIBLE THAT SOMEONE IS DOING SOMETHING NASTY!
Someone could be eavesdropping on you right now (man-in-the-middle attack)!
It is also possible that a host key has just been changed.
The fingerprint for the ECDSA key sent by the remote host is
SHA256:M4yULT9TxhDV5BPO1pZVupvKkKHa8uDjQnSEXviXJSw.
Please contact your system administrator.
Add correct host key in /lustre2/home/toliste/.ssh/known_hosts to get rid of this message.
Offending ECDSA key in /lustre2/home/toliste/.ssh/known_hosts:151
Password authentication is disabled to avoid man-in-the-middle attacks.
Keyboard-interactive authentication is disabled to avoid man-in-the-middle attacks.
@@@@@@@@@@@@@@@@@@@@@@@@@@@@@@@@@@@@@@@@@@@@@@@@@@@@@@@@@@@
@    WARNING: REMOTE HOST IDENTIFICATION HAS CHANGED!     @
@@@@@@@@@@@@@@@@@@@@@@@@@@@@@@@@@@@@@@@@@@@@@@@@@@@@@@@@@@@
IT IS POSSIBLE THAT SOMEONE IS DOING SOMETHING NASTY!
Someone could be eavesdropping on you right now (man-in-the-middle attack)!
It is also possible that a host key has just been changed.
The fingerprint for the ECDSA key sent by the remote host is
SHA256:yPArVvj5wOhEloJrCb/xVGzzpZk0QWZ8LITIW4qfddA.
Please contact your system administrator.
Add correct host key in /lustre2/home/toliste/.ssh/known_hosts to get rid of this message.
Offending ECDSA key in /lustre2/home/toliste/.ssh/known_hosts:127
Password authentication is disabled to avoid man-in-the-middle attacks.
Keyboard-interactive authentication is disabled to avoid man-in-the-middle attacks.
@@@@@@@@@@@@@@@@@@@@@@@@@@@@@@@@@@@@@@@@@@@@@@@@@@@@@@@@@@@
@    WARNING: REMOTE HOST IDENTIFICATION HAS CHANGED!     @
@@@@@@@@@@@@@@@@@@@@@@@@@@@@@@@@@@@@@@@@@@@@@@@@@@@@@@@@@@@
IT IS POSSIBLE THAT SOMEONE IS DOING SOMETHING NASTY!
Someone could be eavesdropping on you right now (man-in-the-middle attack)!
It is also possible that a host key has just been changed.
The fingerprint for the ECDSA key sent by the remote host is
SHA256:+yCn7Por1JJyZxZqPT2vdZd4YCKbfu31iTw0V2f26lk.
Please contact your system administrator.
Add correct host key in /lustre2/home/toliste/.ssh/known_hosts to get rid of this message.
Offending ECDSA key in /lustre2/home/toliste/.ssh/known_hosts:150
Password authentication is disabled to avoid man-in-the-middle attacks.
Keyboard-interactive authentication is disabled to avoid man-in-the-middle attacks.
@@@@@@@@@@@@@@@@@@@@@@@@@@@@@@@@@@@@@@@@@@@@@@@@@@@@@@@@@@@
@    WARNING: REMOTE HOST IDENTIFICATION HAS CHANGED!     @
@@@@@@@@@@@@@@@@@@@@@@@@@@@@@@@@@@@@@@@@@@@@@@@@@@@@@@@@@@@
IT IS POSSIBLE THAT SOMEONE IS DOING SOMETHING NASTY!
Someone could be eavesdropping on you right now (man-in-the-middle attack)!
It is also possible that a host key has just been changed.
The fingerprint for the ECDSA key sent by the remote host is
SHA256:UUwO5PXL1B33HJhaRANVDfAbXPAFCg3n0eIbMQ8SsmA.
Please contact your system administrator.
Add correct host key in /lustre2/home/toliste/.ssh/known_hosts to get rid of this message.
Offending ECDSA key in /lustre2/home/toliste/.ssh/known_hosts:152
Password authentication is disabled to avoid man-in-the-middle attacks.
Keyboard-interactive authentication is disabled to avoid man-in-the-middle attacks.
 (Enter /lustre1/prg/gaussian/bin/G16_C01_Linda9.2_SSE4/g16/linda-exe/l1110.exel)
 Forming Gx(P) for the SCF density, NAtomX=    31.
 Integral derivatives from FoFJK, PRISM(SPDF).
 Do as many integral derivatives as possible in FoFJK.
 G2DrvN: MDV=   11408503551.
 G2DrvN: will do    32 centers at a time, making    1 passes.
 Calling FoFCou, ICntrl=  3107 FMM=F I1Cent=   0 AccDes= 0.00D+00.
 FoFJK:  IHMeth= 1 ICntrl=    3107 DoSepK=F KAlg= 0 I1Cent=           0 FoldK=F
 IRaf=         0 NMat=       1 IRICut=       1 DoRegI=T DoRafI=F ISym2E= 0 IDoP0=0 IntGTp=1.
 FoFCou: FMM=F IPFlag=           0 FMFlag=      100000 FMFlg1=           0
         NFxFlg=           0 DoJE=F BraDBF=F KetDBF=F FulRan=T
         wScrn=  0.000000 ICntrl=      3107 IOpCl=  0 I1Cent=           0 NGrid=           0
         NMat0=    1 NMatS0=      1 NMatT0=    0 NMatD0=    1 NMtDS0=    0 NMtDT0=    0
 Symmetry not used in FoFCou.
 NEqPCM:  Using equilibrium solvation (IEInf=0, Eps=  32.6130, EpsInf=   1.7657)
 G2PCM: DoFxE=T DoFxN=T DoGrad=T DoDP/DQ/DG/TGxP=FFFF NFrqRd=   0 IEInf=0 SqF1=F DoCFld=F IF1Alg=4.
 GePol: Maximum number of non-zero 1st derivatives   =     212
 End of G2Drv F.D. properties file   721 does not exist.
 End of G2Drv F.D. properties file   722 does not exist.
 End of G2Drv F.D. properties file   788 does not exist.
 Leave Link 1110 at Tue Feb  1 06:36:56 2022, MaxMem= 11408506880 cpu:            1079.9 elap:              92.4
@@@@@@@@@@@@@@@@@@@@@@@@@@@@@@@@@@@@@@@@@@@@@@@@@@@@@@@@@@@
@    WARNING: REMOTE HOST IDENTIFICATION HAS CHANGED!     @
@@@@@@@@@@@@@@@@@@@@@@@@@@@@@@@@@@@@@@@@@@@@@@@@@@@@@@@@@@@
IT IS POSSIBLE THAT SOMEONE IS DOING SOMETHING NASTY!
Someone could be eavesdropping on you right now (man-in-the-middle attack)!
It is also possible that a host key has just been changed.
The fingerprint for the ECDSA key sent by the remote host is
SHA256:UUwO5PXL1B33HJhaRANVDfAbXPAFCg3n0eIbMQ8SsmA.
Please contact your system administrator.
Add correct host key in /lustre2/home/toliste/.ssh/known_hosts to get rid of this message.
Offending ECDSA key in /lustre2/home/toliste/.ssh/known_hosts:152
Password authentication is disabled to avoid man-in-the-middle attacks.
Keyboard-interactive authentication is disabled to avoid man-in-the-middle attacks.
@@@@@@@@@@@@@@@@@@@@@@@@@@@@@@@@@@@@@@@@@@@@@@@@@@@@@@@@@@@
@    WARNING: REMOTE HOST IDENTIFICATION HAS CHANGED!     @
@@@@@@@@@@@@@@@@@@@@@@@@@@@@@@@@@@@@@@@@@@@@@@@@@@@@@@@@@@@
IT IS POSSIBLE THAT SOMEONE IS DOING SOMETHING NASTY!
Someone could be eavesdropping on you right now (man-in-the-middle attack)!
It is also possible that a host key has just been changed.
The fingerprint for the ECDSA key sent by the remote host is
SHA256:+yCn7Por1JJyZxZqPT2vdZd4YCKbfu31iTw0V2f26lk.
Please contact your system administrator.
Add correct host key in /lustre2/home/toliste/.ssh/known_hosts to get rid of this message.
Offending ECDSA key in /lustre2/home/toliste/.ssh/known_hosts:150
Password authentication is disabled to avoid man-in-the-middle attacks.
Keyboard-interactive authentication is disabled to avoid man-in-the-middle attacks.
@@@@@@@@@@@@@@@@@@@@@@@@@@@@@@@@@@@@@@@@@@@@@@@@@@@@@@@@@@@
@    WARNING: REMOTE HOST IDENTIFICATION HAS CHANGED!     @
@@@@@@@@@@@@@@@@@@@@@@@@@@@@@@@@@@@@@@@@@@@@@@@@@@@@@@@@@@@
IT IS POSSIBLE THAT SOMEONE IS DOING SOMETHING NASTY!
Someone could be eavesdropping on you right now (man-in-the-middle attack)!
It is also possible that a host key has just been changed.
The fingerprint for the ECDSA key sent by the remote host is
SHA256:yPArVvj5wOhEloJrCb/xVGzzpZk0QWZ8LITIW4qfddA.
Please contact your system administrator.
Add correct host key in /lustre2/home/toliste/.ssh/known_hosts to get rid of this message.
Offending ECDSA key in /lustre2/home/toliste/.ssh/known_hosts:127
Password authentication is disabled to avoid man-in-the-middle attacks.
Keyboard-interactive authentication is disabled to avoid man-in-the-middle attacks.
@@@@@@@@@@@@@@@@@@@@@@@@@@@@@@@@@@@@@@@@@@@@@@@@@@@@@@@@@@@
@    WARNING: REMOTE HOST IDENTIFICATION HAS CHANGED!     @
@@@@@@@@@@@@@@@@@@@@@@@@@@@@@@@@@@@@@@@@@@@@@@@@@@@@@@@@@@@
IT IS POSSIBLE THAT SOMEONE IS DOING SOMETHING NASTY!
Someone could be eavesdropping on you right now (man-in-the-middle attack)!
It is also possible that a host key has just been changed.
The fingerprint for the ECDSA key sent by the remote host is
SHA256:6zgCM3dgCve16Dp/6RkC19T31lBN5cM9JsR2Baj34h8.
Please contact your system administrator.
Add correct host key in /lustre2/home/toliste/.ssh/known_hosts to get rid of this message.
Offending ECDSA key in /lustre2/home/toliste/.ssh/known_hosts:129
Password authentication is disabled to avoid man-in-the-middle attacks.
Keyboard-interactive authentication is disabled to avoid man-in-the-middle attacks.
@@@@@@@@@@@@@@@@@@@@@@@@@@@@@@@@@@@@@@@@@@@@@@@@@@@@@@@@@@@
[...]
 526,-0.00000486,-0.00000193,-0.00000532,0.00012898,0.00003452,-0.00011
 697,-0.00000099,-0.00000113,-0.00000846,0.00004395,-0.00001834,0.00017
 478,0.00001255,-0.00003250,-0.00000114,0.00017024,-0.00000790,-0.00018
 248,0.00004093,0.00003048,-0.00003326,0.00003395,-0.00004157,-0.000030
 13,0.00551104,0.00165726,0.00197503,-0.00070150,0.01349181,-0.00786518
 ,-0.00171644,-0.00191960,-0.00120764,0.02262946,0.15144496,-0.19438324
 ,-0.02698648,-0.16521259,0.19766237,0.00024784,-0.00002808,-0.00010090
 ,-0.00009842,0.00012068,-0.00002224,-0.00005728,0.00003442,-0.00009371
 ,-0.00001539,-0.00006877,0.00000411,-0.00015856,0.00019230,0.00011004,
 -0.00001677,-0.00000783,-0.00000239,0.00010162,-0.00008251,0.00001308,
 -0.00002922,-0.00015634,0.00012970,0.00010298,-0.00024946,0.00024747,-
 0.00020781,0.00078029,-0.00101848,0.00007625,-0.00015867,0.00001955,0.
 00006564,-0.00000722,0.00019209,0.00001417,0.00000816,0.00000028,-0.00
 020764,0.00010939,0.00019045,0.00000426,0.00000511,0.00001973,-0.00046
 396,-0.00001367,-0.00046308,0.00006849,-0.00009704,-0.00000996,0.00007
 123,0.00001923,0.00044108,-0.00008289,-0.00005414,0.00004229,-0.000068
 47,0.00007163,0.00003657,-0.01219093,0.02064082,-0.01665349,-0.0422835
 3,0.00890739,0.03031860,-0.00086393,0.00126057,0.00525460,-0.22839932,
 0.15500076,-0.01815629,0.00602864,-0.00422772,0.00210581,0.60214539,-0
 .00008919,0.00001196,-0.00011288,0.00010039,0.00012889,-0.00014487,-0.
 00013043,-0.00009074,-0.00006435,0.00001689,0.00006637,-0.00003008,-0.
 00015286,-0.00034630,0.00006289,0.00000422,0.00000493,-0.00000738,0.00
 046679,0.00033480,0.00079438,0.00019302,0.00030380,-0.00036196,-0.0007
 8234,0.00029584,-0.00030290,0.00052554,-0.00315116,0.00074968,-0.00016
 241,0.00012957,0.00008640,-0.00006077,-0.00008175,-0.00015901,-0.00003
 126,0.00006651,0.00001167,0.00010376,-0.00035373,-0.00016870,-0.000006
 62,0.00000502,0.00000165,0.00062585,0.00029873,0.00064661,-0.00037619,
 0.00032843,0.00011813,-0.00008300,0.00033101,-0.00081373,0.00002016,-0
 .00000038,0.00002222,0.00001682,-0.00000012,0.00002358,0.02221589,-0.0
 5327916,0.02843370,0.04613657,0.02917517,-0.05577830,0.00081821,0.0035
 8488,0.00282061,0.10390052,-0.21719503,0.05917837,0.01598912,-0.009188
 33,0.00040964,-0.15829195,0.49583765,-0.00009335,0.00001476,0.00018931
 ,-0.00002236,-0.00012969,0.00008212,0.00015687,0.00001265,0.00008215,-
 0.00000826,-0.00000885,0.00001521,0.00018980,0.00015302,-0.00012631,0.
 00001264,0.00000410,0.00000903,-0.00032105,-0.00007476,-0.00059649,-0.
 00002829,-0.00012703,0.00010845,0.00044874,-0.00000944,0.00025517,-0.0
 0094977,0.00099603,-0.00076742,0.00002637,0.00008066,-0.00010939,-0.00
 004080,0.00003654,-0.00001706,0.00000969,-0.00006747,-0.00001753,0.000
 08511,0.00022734,-0.00005274,0.00000273,-0.00000611,-0.00001175,-0.000
 12364,-0.00008925,-0.00001596,0.00013292,-0.00019259,-0.00000602,0.000
 22815,-0.00025965,0.00028516,0.00004126,0.00004031,-0.00005380,0.00003
 283,-0.00005313,-0.00005134,-0.01667600,0.02649415,-0.02068182,-0.0044
 9622,-0.02664791,0.03521436,0.00558397,0.00270583,0.00109860,0.0278320
 3,0.02117371,-0.10639895,-0.01606306,0.01530726,0.00208871,-0.20681709
 ,-0.20615749,0.49214208,0.00025487,-0.00002737,-0.00003080,-0.00000337
 ,-0.00046797,0.00009311,-0.00002419,0.00005383,-0.00012110,-0.00001549
 ,0.00002841,0.00001539,-0.00009256,0.00019502,0.00011288,-0.00001232,-
 0.00000501,0.00000170,-0.00009793,-0.00009356,-0.00038030,-0.00008163,
 -0.00019338,0.00024920,0.00005921,0.00000598,0.00005600,0.00217450,0.0
 0594059,-0.00184126,0.00034405,-0.00040519,-0.00026732,0.00035784,0.00
 009134,0.00048715,0.00005075,0.00000900,-0.00000452,-0.00044587,0.0001
 9235,0.00050724,0.00000873,-0.00001265,0.00001010,-0.00103009,-0.00018
 222,-0.00137547,0.00030466,-0.00012000,0.00017710,0.00006167,-0.000568
 98,0.00199060,-0.00007120,-0.00004138,0.00002077,-0.00006125,0.0000525
 5,0.00001662,-0.04351854,0.04449757,-0.00337147,-0.02290222,-0.0185960
 6,0.02914407,-0.00018105,-0.00081978,0.00031512,0.04157849,0.00134145,
 -0.02685511,-0.00125072,0.00530122,0.00157265,-0.11653754,0.03168195,0
 .01026747,0.58977069,0.00023625,-0.00001486,0.00024201,0.00055500,0.00
 029457,0.00016828,0.00003402,-0.00000029,-0.00027748,0.00003020,-0.000
 10323,0.00003432,-0.00009690,0.00023507,0.00010117,0.00000727,-0.00000
 761,0.00000327,0.00006256,-0.00013618,-0.00004200,-0.00008979,-0.00021
 357,0.00004806,0.00033401,0.00032540,-0.00129279,0.00658891,-0.0000406
 1,0.00285907,0.00005700,-0.00035977,-0.00011387,-0.00001611,-0.0000103
 0,0.00027868,0.00001858,0.00004899,-0.00000805,-0.00016573,0.00009217,
 0.00008938,0.00000735,0.00001158,0.00001211,-0.00078539,0.00009926,-0.
 00061968,0.00016336,-0.00017731,-0.00007962,-0.00023076,-0.00014596,0.
 00144110,-0.00005473,-0.00000638,-0.00004048,-0.00005433,0.00001888,-0
 .00003739,0.00645776,0.02738317,-0.02602705,-0.01823831,-0.01579431,0.
 02154217,-0.00081623,-0.00017053,-0.00009752,0.03772779,-0.03456304,0.
 01071904,0.00506858,0.00065368,0.00237612,-0.01814789,-0.21832843,0.15
 545034,-0.19648464,0.53499716,-0.00019514,0.00001946,0.00009047,-0.000
 27309,-0.00052339,-0.00005882,0.00023964,0.00001263,0.00028649,0.00001
 771,0.00018894,-0.00001800,0.00018328,-0.00044195,-0.00016353,0.000016
 45,0.00000561,-0.00000244,0.00003943,0.00041437,0.00037117,0.00012642,
 0.00029683,-0.00030184,0.00060628,-0.00062838,-0.00031386,-0.00097761,
 0.00147493,0.00558138,-0.00003561,-0.00011347,0.00034166,-0.00020057,-
 0.00004928,-0.00030922,-0.00001881,0.00009484,0.00001545,0.00017324,-0
 .00038081,-0.00021780,-0.00000149,-0.00000136,-0.00001342,0.00041977,0
 .00032390,0.00061941,-0.00016510,0.00024426,-0.00003279,-0.00045697,0.
 00090951,-0.00086954,0.00007074,0.00004117,-0.00003842,0.00006289,-0.0
 0005697,-0.00003293,0.03194739,-0.05077468,0.03269559,0.02949685,0.022
 58286,-0.04977340,0.00027225,-0.00008803,-0.00106876,-0.06156706,0.038
 72540,0.01862404,0.00198212,0.00212748,0.00414783,0.05627164,0.1157653
 9,-0.21706773,-0.16958549,-0.21067686,0.46488244,0.00014719,-0.0000161
 2,-0.00010738,-0.00002290,-0.00006643,-0.00005219,-0.00009501,0.000007
 46,-0.00011068,-0.00000640,0.00000360,-0.00000795,-0.00016606,0.000025
 82,0.00010218,-0.00000954,-0.00000119,-0.00000368,0.00016871,0.0000049
 4,0.00011512,0.,-0.00002902,0.00001461,-0.00026967,-0.00001748,0.00016
 209,0.00010055,0.00097251,-0.00093231,0.00003293,-0.00004179,-0.000041
 28,0.00010358,0.00000568,0.00014838,0.00000254,0.00000787,0.00000373,-
 0.00017175,-0.00000067,0.00014033,0.00000082,-0.00000136,0.00001174,-0
 .00011735,-0.00000752,-0.00023713,-0.00000411,-0.00001580,-0.00002060,
 0.00002487,-0.00010429,0.00025069,-0.00004870,-0.00003671,0.00003484,-
 0.00004205,0.00004671,0.00003200,-0.00085875,0.00106583,0.00577015,-0.
 00025455,-0.00079319,0.00012975,-0.00027798,-0.00024107,-0.00042029,0.
 00293222,0.00101093,0.00264413,0.00014872,-0.00020988,0.00010110,0.005
 71877,-0.00360803,0.00200482,-0.19764052,0.14941511,-0.01378173,0.2027
 6852,-0.00001955,0.00000089,0.00003317,0.00003049,-0.00001297,0.000006
 53,0.00002085,0.00001148,-0.00000995,0.00000255,-0.00000111,0.00000061
 ,0.00000873,0.00002411,-0.00001363,0.00000324,0.00000017,0.00000101,-0
 .00000697,-0.00002532,-0.00006843,-0.00001923,-0.00003028,-0.00000191,
 0.00005063,-0.00008544,-0.00001603,-0.00008912,0.00029688,0.00007785,0
 .00000616,-0.00001614,-0.00004284,0.00001488,0.00001485,0.00000761,0.0
 0000069,-0.00000330,-0.00000275,-0.00000860,0.00001464,0.00000334,0.00
 000093,-0.00000137,-0.00000319,0.00000631,-0.00003327,-0.00003549,0.00
 002178,-0.00001077,0.00001201,0.00005289,-0.00005169,0.00005599,0.0000
 0873,0.00000782,-0.00001051,0.00000649,-0.00000988,-0.00000876,0.00096
 844,0.00383949,0.00271243,-0.00089015,-0.00025407,0.00010364,-0.000222
 50,-0.00039119,-0.00047179,0.00072339,0.00062670,0.00565584,0.00076694
 ,-0.00061378,-0.00001913,0.01596500,-0.00920785,-0.00023161,0.14955009
 ,-0.19543794,0.02669867,-0.16226004,0.19930969,-0.00003758,0.00000426,
 0.00005918,0.00009380,0.00010473,0.00003608,0.00003620,0.00000353,-0.0
 0000697,0.00000860,-0.00002280,0.00000609,0.00003561,0.00003449,-0.000
 02131,0.00000483,-0.00000021,0.00000169,-0.00002604,-0.00006071,-0.000
 08254,-0.00000907,-0.00001810,0.00000098,0.00015458,0.00001733,-0.0001
 6502,0.00060956,-0.00051884,0.00038858,-0.00000896,0.00000278,-0.00003
 988,-0.00000144,0.00000409,-0.00000911,-0.00000078,-0.00000290,-0.0000
 0362,0.00001235,0.00001246,-0.00002535,0.00000085,0.00000078,-0.000004
 93,0.00003019,-0.00004862,0.00000173,0.00001249,-0.00000227,0.00001228
 ,0.00000314,-0.00003032,0.00003394,0.00001396,0.00001377,-0.00001640,0
 .00001169,-0.00001715,-0.00001480,0.00507552,0.00245382,0.00102094,0.0
 0013667,0.00009587,-0.00118099,-0.00040208,-0.00046690,-0.00035274,0.0
 0306541,0.00548638,0.00002338,-0.00083367,0.00072629,-0.00004287,-0.01
 609142,0.01552302,0.00235240,-0.01432811,0.02648767,-0.05219384,0.0117
 0154,-0.03190989,0.04694295,-0.00038528,0.00005795,-0.00009178,-0.0023
 9292,-0.00088797,-0.00052643,0.00067703,0.00000954,0.00150312,-0.00007
 433,0.00025078,-0.00007954,0.00087106,-0.00070800,-0.00084705,0.000004
 38,-0.00000636,-0.00000326,-0.00060650,0.00055443,0.00000171,0.0002234
 2,0.00050435,-0.00045276,0.00261091,-0.00040090,0.00393903,-0.03130912
 ,0.01529740,0.00840029,-0.00033988,-0.00042547,0.00168831,-0.00124233,
 0.00000120,-0.00131463,-0.00000716,-0.00003951,0.00001996,0.00128603,0
 .00023419,-0.00096118,-0.00000382,-0.00003409,-0.00000636,0.00063267,0
 .00071694,0.00171089,0.00003989,-0.00034566,0.00011650,-0.00079245,0.0
 0248725,-0.00512387,0.00011974,0.00003971,-0.00002191,0.00011050,-0.00
 006235,-0.00001455,-0.20390184,0.09855194,0.01720348,0.03947359,0.0379
 8789,-0.05570737,0.00257302,0.00013284,0.00278207,-0.06267878,0.025134
 12,0.01894206,-0.00120500,0.00030940,-0.00012589,0.02432927,-0.0658531
 3,0.04744006,-0.25620941,0.04368437,0.10896352,-0.01134955,-0.00194168
 ,0.01412251,0.55071602,0.00015209,-0.00004300,-0.00043671,-0.00035241,
 -0.00042791,0.00000672,-0.00037254,0.00002670,-0.00014370,-0.00006106,
 0.00000867,0.00000019,-0.00024315,0.00018301,0.00029697,-0.00004002,-0
 .00001674,-0.00000968,0.00010509,0.00011392,0.00026047,-0.00004460,-0.
 00024676,0.00025690,-0.00221549,0.00040871,0.00048598,0.00290716,0.004
 49536,-0.00501870,0.00047379,-0.00003558,-0.00050360,0.00078346,0.0001
 9668,0.00059169,0.00004211,0.00004235,0.00003161,-0.00066692,-0.000209
 99,0.00081524,-0.00000060,-0.00000446,0.00001722,-0.00057734,-0.000692
 07,-0.00190810,0.00062414,0.00002736,-0.00091060,-0.00043883,-0.001278
 19,0.00240146,-0.00006674,-0.00008053,0.00011543,-0.00004765,0.0000932
 4,0.00010366,0.14438342,-0.20408399,0.02165723,0.00128440,-0.03508694,
 0.03894801,0.00076489,0.00050648,0.00511955,0.02622606,-0.01543289,-0.
 01213313,0.00029287,-0.00024438,-0.00073797,-0.02812286,0.02860480,0.0
 0232701,-0.00547363,-0.10756782,0.04218390,0.01756830,0.00382110,-0.01
 384544,-0.14448068,0.52449164,-0.00062168,0.00007220,0.00057941,0.0004
 3080,0.00095908,0.00059010,0.00050726,-0.00006481,0.00048372,0.0000360
 7,-0.00015071,0.00008292,0.00091995,0.00004470,-0.00054687,0.00003041,
 0.00001507,0.00002540,-0.00101074,-0.00026282,-0.00092379,0.00008870,0
 .00012018,0.00014427,0.00251118,0.00003323,-0.00185283,0.01312072,-0.0
 1359484,0.00861312,-0.00041134,0.00052302,0.00096160,-0.00088963,0.000
 05303,-0.00119166,0.00004211,-0.00022002,0.00001291,0.00162376,0.00046
 505,-0.00079711,-0.00002279,-0.00001213,-0.00002616,0.00057335,-0.0012
 3469,-0.00067929,0.00077609,-0.00097617,-0.00170571,-0.00037799,-0.000
 17014,-0.00270595,0.00019679,0.00016460,-0.00016734,0.00018691,-0.0002
 1388,-0.00015529,-0.01713903,0.05400503,-0.10614263,-0.02528019,0.0107
 3855,0.01830518,0.00221423,0.00547899,-0.00036855,0.01926830,-0.012066
 09,-0.01033837,-0.00009519,-0.00082037,-0.00024239,0.01257248,0.030774
 38,-0.03083645,0.15576108,0.00580362,-0.18997007,-0.00417950,0.0014404
 9,0.00545701,-0.18662295,-0.23788149,0.50258442,-0.00018685,0.00001532
 ,-0.00012197,0.00014071,0.00014747,0.00002781,-0.00011312,-0.00001623,
 -0.00009525,0.00000119,-0.00002603,-0.00000243,-0.00007162,0.00002082,
 0.00006977,-0.00000104,0.00000299,0.00000017,0.00007990,-0.00002650,0.
 00005340,0.00001625,0.00000733,0.00001080,-0.00037520,0.00000467,0.000
 01497,0.00026610,-0.00038160,-0.00269086,-0.00000545,-0.00002262,0.000
 07898,0.00003612,0.00001824,-0.00016622,-0.00000925,0.00001095,0.00000
 102,0.00003972,-0.00005877,-0.00004508,0.00000274,0.00000048,-0.000020
 24,0.00044288,0.00000948,0.00044477,0.00001513,-0.00004981,-0.00010316
 ,-0.00011908,-0.00003950,-0.00023356,0.00004486,0.00001517,0.00001458,
 0.00004387,-0.00002844,0.00001663,0.00404729,0.01521237,-0.01399630,-0
 .00147310,0.00477927,0.00173378,0.00024301,0.00086762,-0.00072501,-0.0
 0115780,0.00010784,0.00006838,-0.00014408,-0.00039878,-0.00038740,-0.0
 0167704,0.00247951,0.00502766,0.00289378,-0.01750853,0.01683803,-0.000
 20726,-0.00129364,-0.00200729,-0.05435614,-0.01407605,0.02395437,0.051
 63122,0.00025657,-0.00001549,-0.00002644,0.00018106,0.00009634,-0.0000
 5391,-0.00016917,-0.00002875,-0.00024844,0.00000141,-0.00001948,-0.000
 00650,-0.00025103,0.00001335,0.00016115,-0.00000551,0.00000061,-0.0000
 0443,0.00022161,-0.00003084,0.00022451,-0.00001702,-0.00001447,-0.0000
 2470,-0.00053440,0.00016174,-0.00014076,-0.00137796,-0.00100159,-0.000
 43044,-0.00048075,0.00019249,0.00002340,-0.00018206,-0.00006729,-0.000
 06199,-0.00004277,-0.00004129,-0.00000650,0.00006056,0.00010206,-0.000
 21246,-0.00000602,0.00000851,0.00002864,0.00048958,0.00015217,0.000358
 87,-0.00034024,-0.00054649,-0.00041906,0.00062137,-0.00013909,-0.00088
 529,-0.00008513,-0.00004707,0.00003251,-0.00008442,0.00007080,0.000027
 33,-0.00435213,-0.00940174,0.01519458,0.00527963,0.00051974,0.00147946
 ,-0.00012800,-0.00046371,0.00086313,0.00011700,-0.00016637,-0.00080846
 ,-0.00038585,-0.00039239,-0.00034864,0.00224154,0.00357511,0.00191766,
 0.00200642,0.00438959,-0.00175549,-0.00153830,-0.00108314,-0.00170104,
 -0.01271805,-0.19739146,0.15132820,0.01113991,0.20151802,0.00009897,-0
 .00001201,-0.00010732,0.00009286,0.00004409,-0.00005378,-0.00015737,-0
 .00000217,-0.00016329,-0.00000333,-0.00001171,-0.00000744,-0.00019437,
 0.00002091,0.00014653,-0.00000829,0.,-0.00000393,0.00018594,-0.0000263
 5,0.00020898,0.00000696,-0.00000808,0.00001200,-0.00066015,0.00013913,
 0.00001467,-0.00016454,-0.00195772,-0.00166160,-0.00021933,0.00031695,
 -0.00012194,0.00017005,0.00001521,-0.00000284,-0.00001094,0.00000271,0
 .00000996,-0.00000656,-0.00013541,-0.00000182,-0.00000848,0.00000222,0
 .00001039,0.00013497,-0.00073779,-0.00069087,0.00008004,-0.00035593,-0
 .00040853,0.00043721,-0.00035598,-0.00012170,-0.00003923,-0.00003079,0
 .00003902,-0.00003943,0.00004123,0.00003270,0.00140384,0.00079184,0.00
 154524,0.00120276,0.00205903,0.00362888,0.00021387,0.00009267,0.000117
 32,0.00001584,-0.00081807,-0.00009978,-0.00037016,-0.00033923,-0.00048
 650,0.00535872,0.00153534,0.00196516,-0.00054742,0.01362433,-0.0076806
 6,-0.00173376,-0.00194460,-0.00116594,0.02342880,0.15177309,-0.1898812
 7,-0.02857646,-0.16432688,0.19547450,0.00002718,-0.00000415,-0.0000775
 8,0.00001187,0.00003482,0.00000355,-0.00006901,-0.00000121,-0.00003796
 ,-0.00000087,-0.00000622,-0.00000047,-0.00005807,-0.00000235,0.0000571
 3,-0.00000633,-0.00000017,-0.00000221,0.00005869,-0.00003479,0.0000911
 0,0.00002071,0.00002784,0.00002373,-0.00015715,-0.00000928,-0.00003851
 ,-0.00009708,-0.00033757,-0.00046189,-0.00000844,0.00005849,0.00000705
 ,0.00002582,-0.00000393,0.00001218,-0.00000162,-0.00000981,0.00000127,
 -0.00002830,0.00000517,0.00002594,-0.00000040,0.00000029,0.00000283,0.
 00002639,-0.00002158,-0.00000763,-0.00001646,-0.00000173,-0.00001209,0
 .00001465,-0.00001876,-0.00005319,-0.00001430,-0.00001455,0.00002159,-
 0.00001141,0.00001818,0.00001979,0.00007152,-0.00001650,-0.00066551,-0
 .00003764,0.00548129,0.00080876,-0.00069438,-0.00019842,0.00064920,-0.
 01126657,-0.00251544,0.01438756,-0.00022556,-0.00157642,-0.00161550,-0
 .23561584,0.00433296,0.14611677,0.00231666,0.00224122,-0.00046899,-0.0
 0060725,-0.00145775,-0.00138306,0.00318700,0.00167278,0.00183644,-0.00
 004775,0.00008214,-0.00009099,0.24320397,-0.00001959,0.00000245,-0.000
 02958,0.00002454,0.00005175,-0.00002784,-0.00004474,-0.00000929,-0.000
 03413,0.00000091,-0.00000804,-0.00000361,-0.00004601,0.00000378,0.0000
 3395,-0.00000045,0.00000029,-0.00000140,0.00006268,-0.00000720,0.00010
 110,-0.00000374,-0.00000400,-0.00002231,-0.00021856,0.00000148,-0.0000
 0641,-0.00033795,-0.00027473,-0.00045342,-0.00003362,0.00005026,0.0000
 1565,-0.00001791,-0.00000634,-0.00004896,-0.00000408,-0.00000759,-0.00
 000051,0.00003908,0.00000211,-0.00003250,-0.00000113,0.00000034,-0.000
 00061,0.00008176,-0.00001148,0.00008334,-0.00002257,-0.00000106,-0.000
 01006,0.00005324,0.00000557,-0.00020747,0.00000363,-0.00000056,0.00000
 555,0.00000299,0.00000090,0.00000573,0.00026386,-0.00128719,0.00034260
 ,0.00494210,-0.00011382,0.00330350,0.00081582,0.00005863,-0.00072656,0
 .01735050,0.00455903,-0.01342017,-0.00195782,-0.00068279,-0.00171987,0
 .00435684,-0.05186046,0.00711362,-0.01745595,0.00452861,0.01338052,-0.
 00114590,-0.00069830,-0.00232607,0.00194956,-0.00017731,0.00564875,-0.
 00091293,0.00005012,0.00060397,-0.00772454,0.04583485,-0.00007747,0.00
 000785,-0.00001457,0.00001350,0.00006880,-0.00000631,-0.00001363,-0.00
 000350,0.00001638,0.00000209,-0.00001213,-0.00000085,0.00001633,0.0000
 0649,-0.00000387,0.00000130,0.00000026,-0.00000025,0.00000311,-0.00003
 104,0.00004786,-0.00000310,0.00000318,-0.00001302,-0.00009988,-0.00002
 248,-0.00001093,-0.00045847,-0.00044634,-0.00034980,0.00000126,0.00005
 127,0.00001066,-0.00000862,0.00000189,-0.00007310,-0.00000070,-0.00000
 881,-0.00000101,0.00006190,-0.00000430,-0.00003261,-0.00000054,0.00000
 034,-0.00000625,0.00007926,-0.00004898,0.00007335,0.00001570,0.0000299
 8,0.00002642,0.00000894,-0.00000814,-0.00017733,0.00002155,0.00001007,
 -0.00000222,0.00001965,-0.00001497,-0.00000120,-0.00066736,-0.00003408
 ,-0.00026493,0.00100211,0.00316766,0.00389978,-0.00025677,0.00003443,0
 .00009388,-0.00397008,0.00165481,0.00591933,-0.00126625,-0.00195160,-0
 .00140953,0.14610077,0.00714400,-0.15907712,0.01791012,-0.00196797,-0.
 00752886,-0.00173873,-0.00201867,-0.00101091,0.00163722,0.00613678,0.0
 0069168,0.00081611,-0.00017798,-0.00054613,-0.15914930,-0.01156681,0.1
 5975147\\-0.00000039,0.00000165,-0.00000051,-0.00000002,0.00000142,-0.
 00000055,0.00000008,0.00000174,-0.00000074,-0.00000002,0.00000239,-0.0
 0000094,0.00000035,0.00000117,-0.00000065,0.00000049,0.00000134,-0.000
 00078,0.00000037,0.00000048,-0.00000034,0.00000052,-0.00000010,-0.0000
 0021,0.00000010,0.00000060,-0.00000031,-0.00000003,0.00000006,-0.00000
 004,-0.00000051,0.00000112,-0.00000019,-0.00000073,0.00000113,-0.00000
 007,-0.00000096,0.00000172,-0.00000023,-0.00000078,0.00000036,0.000000
 18,-0.00000098,0.00000027,0.00000032,-0.00000049,-0.00000013,0.0000003
 2,-0.00000039,-0.00000078,0.00000049,-0.00000026,0.00000031,0.00000006
 ,-0.00000098,0.00000233,-0.00000045,0.00000018,0.00000220,-0.00000093,
 0.00000020,-0.00000082,0.00000022,0.00000092,-0.00000116,0.,0.00000133
 ,-0.00000076,-0.00000035,0.00000110,-0.00000194,0.00000024,0.00000167,
 -0.00000218,0.00000008,0.00000056,-0.00000240,0.00000070,-0.00000018,-
 0.00000211,0.00000094,-0.00000058,-0.00000249,0.00000129,-0.00000036,-
 0.00000132,0.00000070,-0.00000092,-0.00000107,0.00000086,0.00000071,-0
 .00000304,0.00000089\\\@
 The archive entry for this job was punched.


 TIME GOES, YOU SAY?  AH NO!
 ALAS, TIME STAYS, WE GO.
    -- A. DOBSON (1840-1921)
 Job cpu time:       0 days  0 hours  0 minutes 25.1 seconds.
 Elapsed time:       0 days  0 hours  9 minutes 31.4 seconds.
 File lengths (MBytes):  RWF=    457 Int=      0 D2E=      0 Chk=     26 Scr=      1
 Normal termination of Gaussian 16 at Tue Feb  1 06:57:31 2022.
