 Entering Gaussian System, Link 0=/lustre1/prg/gaussian/bin/G16_C01_Linda9.2_SSE4/g16/g16
 Initial command:
 /lustre1/prg/gaussian/bin/G16_C01_Linda9.2_SSE4/g16/l1.exe "/lustre1/prg/webmo/data/webmo20/toliste/4401/scratch/Gau-53940.inp" -scrdir="/lustre1/prg/webmo/data/webmo20/toliste/4401/scratch/"
 Default is to use a total of  12 processors:
                               12 via shared-memory
                                1 via Linda
 Entering Link 1 = /lustre1/prg/gaussian/bin/G16_C01_Linda9.2_SSE4/g16/l1.exe PID=     53941.
  
 Copyright (c) 1988-2019, Gaussian, Inc.  All Rights Reserved.
  
 This is part of the Gaussian(R) 16 program.  It is based on
 the Gaussian(R) 09 system (copyright 2009, Gaussian, Inc.),
 the Gaussian(R) 03 system (copyright 2003, Gaussian, Inc.),
 the Gaussian(R) 98 system (copyright 1998, Gaussian, Inc.),
 the Gaussian(R) 94 system (copyright 1995, Gaussian, Inc.),
 the Gaussian 92(TM) system (copyright 1992, Gaussian, Inc.),
 the Gaussian 90(TM) system (copyright 1990, Gaussian, Inc.),
 the Gaussian 88(TM) system (copyright 1988, Gaussian, Inc.),
 the Gaussian 86(TM) system (copyright 1986, Carnegie Mellon
 University), and the Gaussian 82(TM) system (copyright 1983,
 Carnegie Mellon University). Gaussian is a federally registered
 trademark of Gaussian, Inc.
  
 This software contains proprietary and confidential information,
 including trade secrets, belonging to Gaussian, Inc.
  
 This software is provided under written license and may be
 used, copied, transmitted, or stored only in accord with that
 written license.
  
 The following legend is applicable only to US Government
 contracts under FAR:
  
                    RESTRICTED RIGHTS LEGEND
  
 Use, reproduction and disclosure by the US Government is
 subject to restrictions as set forth in subparagraphs (a)
 and (c) of the Commercial Computer Software - Restricted
 Rights clause in FAR 52.227-19.
  
 Gaussian, Inc.
 340 Quinnipiac St., Bldg. 40, Wallingford CT 06492
  
  
 ---------------------------------------------------------------
 Warning -- This program may not be used in any manner that
 competes with the business of Gaussian, Inc. or will provide
 assistance to any competitor of Gaussian, Inc.  The licensee
 of this program is prohibited from giving any competitor of
 Gaussian, Inc. access to this program.  By using this program,
 the user acknowledges that Gaussian, Inc. is engaged in the
 business of creating and licensing software in the field of
 computational chemistry and represents and warrants to the
 licensee that it is not a competitor of Gaussian, Inc. and that
 it will not use this program in any manner prohibited above.
 ---------------------------------------------------------------
  

 Cite this work as:
 Gaussian 16, Revision C.01,
 M. J. Frisch, G. W. Trucks, H. B. Schlegel, G. E. Scuseria, 
 M. A. Robb, J. R. Cheeseman, G. Scalmani, V. Barone, 
 G. A. Petersson, H. Nakatsuji, X. Li, M. Caricato, A. V. Marenich, 
 J. Bloino, B. G. Janesko, R. Gomperts, B. Mennucci, H. P. Hratchian, 
 J. V. Ortiz, A. F. Izmaylov, J. L. Sonnenberg, D. Williams-Young, 
 F. Ding, F. Lipparini, F. Egidi, J. Goings, B. Peng, A. Petrone, 
 T. Henderson, D. Ranasinghe, V. G. Zakrzewski, J. Gao, N. Rega, 
 G. Zheng, W. Liang, M. Hada, M. Ehara, K. Toyota, R. Fukuda, 
 J. Hasegawa, M. Ishida, T. Nakajima, Y. Honda, O. Kitao, H. Nakai, 
 T. Vreven, K. Throssell, J. A. Montgomery, Jr., J. E. Peralta, 
 F. Ogliaro, M. J. Bearpark, J. J. Heyd, E. N. Brothers, K. N. Kudin, 
 V. N. Staroverov, T. A. Keith, R. Kobayashi, J. Normand, 
 K. Raghavachari, A. P. Rendell, J. C. Burant, S. S. Iyengar, 
 J. Tomasi, M. Cossi, J. M. Millam, M. Klene, C. Adamo, R. Cammi, 
 J. W. Ochterski, R. L. Martin, K. Morokuma, O. Farkas, 
 J. B. Foresman, and D. J. Fox, Gaussian, Inc., Wallingford CT, 2019.
 
 ******************************************
 Gaussian 16:  ES64L-G16RevC.01  3-Jul-2019
                 1-Feb-2022 
 ******************************************
 %LindaWorkers=fizika18,fizika19,fizika20,fizika21,fizika40,fizika42,fizika44,fiz
 ika45
 %chk=bodipy.chk
 SetLPE:  input flags=" -opt "Tsnet.Node.lindarsharg: ssh" "
 SetLPE:    new flags=" -opt "Tsnet.Node.lindarsharg: ssh" -opt 'Tsnet.Node.lindarsharg: ssh'  -nodelist 'fizika18.fizika.bullx fizika19.fizika.bullx fizika20.fizika.bullx fizika21.fizika.bullx fizika40.fizika.bullx fizika42.fizika.bullx fizika44.fizika.bullx fizika45.fizika.bullx' -env GAUSS_MDEF=11408506880 -env GAUSS_EXEDIR="/lustre1/prg/gaussian/bin/G16_C01_Linda9.2_SSE4/g16/bsd:/lustre1/prg/gaussian/bin/G16_C01_Linda9.2_SSE4/g16/private:/lustre1/prg/gaussian/bin/G16_C01_Linda9.2_SSE4/g16""
 Will use up to    8 processors via Linda.
 ----------------------------------------------------------------------
 #p m062x cc-pvdz scrf=(cpcm,solvent=DiMethylSulfoxide) opt=(tight,calc
 fc) freq nosymm int=ultrafine fchk
 ----------------------------------------------------------------------
 1/7=10,10=4,18=20,19=15,26=6,38=1/1,3;
 2/9=110,12=2,15=1,17=6,18=5,40=1/2;
 3/5=16,11=2,25=1,30=1,70=2101,71=2,72=21,74=-55,75=-5,140=1/1,2,3;
 4//1;
 5/5=2,38=5,53=21/2;
 8/6=4,10=90,11=11/1;
 11/6=1,8=1,9=11,15=111,16=1,31=1/1,2,10;
 10/6=1,13=1,31=1/2;
 6/7=2,8=2,9=2,10=2,28=1/1;
 7/10=1,25=1,30=1/1,2,3,16;
 1/7=10,10=4,18=20,19=15,26=6/3(2);
 2/9=110,15=1/2;
 99//99;
 2/9=110,15=1/2;
 3/5=16,11=2,25=1,30=1,70=2105,71=1,72=21,74=-55,75=-5/1,2,3;
 4/5=5,16=3,69=1/1;
 5/5=2,38=5,53=21/2;
 7/30=1/1,2,3,16;
 1/7=10,18=20,19=15,26=6/3(-5);
 2/9=110,15=1/2;
 6/7=2,8=2,9=2,10=2,19=2,28=1/1;
 99/9=1/99;
 Leave Link    1 at Tue Feb  1 06:32:02 2022, MaxMem=           0 cpu:               1.8 elap:               0.2
 (Enter /lustre1/prg/gaussian/bin/G16_C01_Linda9.2_SSE4/g16/l101.exe)
 -----------------------------------
 BDP-phenyl, optimized S0 in toluene
 -----------------------------------
 Symbolic Z-matrix:
 Charge =  0 Multiplicity = 1
 B                    -0.00469  -0.10715   0.00523 
 N                     0.00355  -0.0348    1.56053 
 C                     1.09142   0.03399   2.3329 
 H                     2.08367   0.04716   1.88742 
 C                     0.72032   0.0914    3.69253 
 H                     1.40229   0.16063   4.53392 
 C                    -0.66717   0.06113   3.72674 
 H                    -1.31044   0.11634   4.60031 
 C                    -1.11444  -0.02512   2.38272 
 C                    -2.41075  -0.01349   1.84304 
 N                    -1.49909   0.04475  -0.4088 
 C                    -1.95685   0.07014  -1.66364 
 H                    -1.26471   0.08307  -2.50272 
 C                    -3.36721   0.06095  -1.66801 
 H                    -3.9994    0.07658  -2.55003 
 C                    -3.76782   0.01911  -0.33944 
 H                    -4.78289  -0.01718   0.04535 
 C                    -2.589     0.01886   0.45061 
 F                     0.75672   0.92638  -0.52704 
 F                     0.4778   -1.34134  -0.4211 
 C                    -3.58379  -0.01873   2.7443 
 C                    -3.70423  -1.00041   3.73869 
 H                    -2.93739  -1.77114   3.82768 
 C                    -4.81073  -1.00786   4.58442 
 H                    -4.90286  -1.78306   5.34553 
 C                    -5.79759  -0.03012   4.45627 
 C                    -5.67894   0.95398   3.47453 
 H                    -6.44292   1.72571   3.37709 
 C                    -4.58181   0.95827   2.61672 
 H                    -4.47817   1.73648   1.85944 
 H                    -6.6603   -0.03455   5.12325 
 
 ITRead=  0  0  0  0  0  0  0  0  0  0  0  0  0  0  0  0  0  0  0  0
 ITRead=  0  0  0  0  0  0  0  0  0  0  0
 MicOpt= -1 -1 -1 -1 -1 -1 -1 -1 -1 -1 -1 -1 -1 -1 -1 -1 -1 -1 -1 -1
 MicOpt= -1 -1 -1 -1 -1 -1 -1 -1 -1 -1 -1
 NAtoms=     31 NQM=       31 NQMF=       0 NMMI=      0 NMMIF=      0
                NMic=       0 NMicF=      0.
                    Isotopes and Nuclear Properties:
 (Nuclear quadrupole moments (NQMom) in fm**2, nuclear magnetic moments (NMagM)
  in nuclear magnetons)

  Atom         1           2           3           4           5           6           7           8           9          10
 IAtWgt=          11          14          12           1          12           1          12           1          12          12
 AtmWgt=  11.0093053  14.0030740  12.0000000   1.0078250  12.0000000   1.0078250  12.0000000   1.0078250  12.0000000  12.0000000
 NucSpn=           3           2           0           1           0           1           0           1           0           0
 AtZEff=  -0.0000000  -0.0000000  -0.0000000  -0.0000000  -0.0000000  -0.0000000  -0.0000000  -0.0000000  -0.0000000  -0.0000000
 NQMom=    4.0590000   2.0440000   0.0000000   0.0000000   0.0000000   0.0000000   0.0000000   0.0000000   0.0000000   0.0000000
 NMagM=    2.6886370   0.4037610   0.0000000   2.7928460   0.0000000   2.7928460   0.0000000   2.7928460   0.0000000   0.0000000
 AtZNuc=   5.0000000   7.0000000   6.0000000   1.0000000   6.0000000   1.0000000   6.0000000   1.0000000   6.0000000   6.0000000

  Atom        11          12          13          14          15          16          17          18          19          20
 IAtWgt=          14          12           1          12           1          12           1          12          19          19
 AtmWgt=  14.0030740  12.0000000   1.0078250  12.0000000   1.0078250  12.0000000   1.0078250  12.0000000  18.9984033  18.9984033
 NucSpn=           2           0           1           0           1           0           1           0           1           1
 AtZEff=  -0.0000000  -0.0000000  -0.0000000  -0.0000000  -0.0000000  -0.0000000  -0.0000000  -0.0000000  -0.0000000  -0.0000000
 NQMom=    2.0440000   0.0000000   0.0000000   0.0000000   0.0000000   0.0000000   0.0000000   0.0000000   0.0000000   0.0000000
 NMagM=    0.4037610   0.0000000   2.7928460   0.0000000   2.7928460   0.0000000   2.7928460   0.0000000   2.6288670   2.6288670
 AtZNuc=   7.0000000   6.0000000   1.0000000   6.0000000   1.0000000   6.0000000   1.0000000   6.0000000   9.0000000   9.0000000

  Atom        21          22          23          24          25          26          27          28          29          30
 IAtWgt=          12          12           1          12           1          12          12           1          12           1
 AtmWgt=  12.0000000  12.0000000   1.0078250  12.0000000   1.0078250  12.0000000  12.0000000   1.0078250  12.0000000   1.0078250
 NucSpn=           0           0           1           0           1           0           0           1           0           1
 AtZEff=  -0.0000000  -0.0000000  -0.0000000  -0.0000000  -0.0000000  -0.0000000  -0.0000000  -0.0000000  -0.0000000  -0.0000000
 NQMom=    0.0000000   0.0000000   0.0000000   0.0000000   0.0000000   0.0000000   0.0000000   0.0000000   0.0000000   0.0000000
 NMagM=    0.0000000   0.0000000   2.7928460   0.0000000   2.7928460   0.0000000   0.0000000   2.7928460   0.0000000   2.7928460
 AtZNuc=   6.0000000   6.0000000   1.0000000   6.0000000   1.0000000   6.0000000   6.0000000   1.0000000   6.0000000   1.0000000

  Atom        31
 IAtWgt=           1
 AtmWgt=   1.0078250
 NucSpn=           1
 AtZEff=  -0.0000000
 NQMom=    0.0000000
 NMagM=    2.7928460
 AtZNuc=   1.0000000
 Leave Link  101 at Tue Feb  1 06:32:02 2022, MaxMem= 11408506880 cpu:               8.2 elap:               0.7
 (Enter /lustre1/prg/gaussian/bin/G16_C01_Linda9.2_SSE4/g16/l103.exe)

 GradGradGradGradGradGradGradGradGradGradGradGradGradGradGradGradGradGrad
 Berny optimization.
 Initialization pass.
                           ----------------------------
                           !    Initial Parameters    !
                           ! (Angstroms and Degrees)  !
 --------------------------                            --------------------------
 ! Name  Definition              Value          Derivative Info.                !
 --------------------------------------------------------------------------------
 ! R1    R(1,2)                  1.557          calculate D2E/DX2 analytically  !
 ! R2    R(1,11)                 1.5581         calculate D2E/DX2 analytically  !
 ! R3    R(1,19)                 1.3897         calculate D2E/DX2 analytically  !
 ! R4    R(1,20)                 1.392          calculate D2E/DX2 analytically  !
 ! R5    R(2,3)                  1.3359         calculate D2E/DX2 analytically  !
 ! R6    R(2,9)                  1.3878         calculate D2E/DX2 analytically  !
 ! R7    R(3,4)                  1.0877         calculate D2E/DX2 analytically  !
 ! R8    R(3,5)                  1.4105         calculate D2E/DX2 analytically  !
 ! R9    R(5,6)                  1.0853         calculate D2E/DX2 analytically  !
 ! R10   R(5,7)                  1.3882         calculate D2E/DX2 analytically  !
 ! R11   R(7,8)                  1.0863         calculate D2E/DX2 analytically  !
 ! R12   R(7,9)                  1.4191         calculate D2E/DX2 analytically  !
 ! R13   R(9,10)                 1.4042         calculate D2E/DX2 analytically  !
 ! R14   R(10,18)                1.4042         calculate D2E/DX2 analytically  !
 ! R15   R(10,21)                1.4793         calculate D2E/DX2 analytically  !
 ! R16   R(11,12)                1.336          calculate D2E/DX2 analytically  !
 ! R17   R(11,18)                1.3882         calculate D2E/DX2 analytically  !
 ! R18   R(12,13)                1.0878         calculate D2E/DX2 analytically  !
 ! R19   R(12,14)                1.4104         calculate D2E/DX2 analytically  !
 ! R20   R(14,15)                1.0853         calculate D2E/DX2 analytically  !
 ! R21   R(14,16)                1.3883         calculate D2E/DX2 analytically  !
 ! R22   R(16,17)                1.0862         calculate D2E/DX2 analytically  !
 ! R23   R(16,18)                1.4191         calculate D2E/DX2 analytically  !
 ! R24   R(21,22)                1.4025         calculate D2E/DX2 analytically  !
 ! R25   R(21,29)                1.4024         calculate D2E/DX2 analytically  !
 ! R26   R(22,23)                1.0909         calculate D2E/DX2 analytically  !
 ! R27   R(22,24)                1.3927         calculate D2E/DX2 analytically  !
 ! R28   R(24,25)                1.0903         calculate D2E/DX2 analytically  !
 ! R29   R(24,26)                1.3951         calculate D2E/DX2 analytically  !
 ! R30   R(26,27)                1.3951         calculate D2E/DX2 analytically  !
 ! R31   R(26,31)                1.0905         calculate D2E/DX2 analytically  !
 ! R32   R(27,28)                1.0903         calculate D2E/DX2 analytically  !
 ! R33   R(27,29)                1.3927         calculate D2E/DX2 analytically  !
 ! R34   R(29,30)                1.0908         calculate D2E/DX2 analytically  !
 ! A1    A(2,1,11)             105.4249         calculate D2E/DX2 analytically  !
 ! A2    A(2,1,19)             110.19           calculate D2E/DX2 analytically  !
 ! A3    A(2,1,20)             110.1997         calculate D2E/DX2 analytically  !
 ! A4    A(11,1,19)            110.5614         calculate D2E/DX2 analytically  !
 ! A5    A(11,1,20)            109.7234         calculate D2E/DX2 analytically  !
 ! A6    A(19,1,20)            110.6208         calculate D2E/DX2 analytically  !
 ! A7    A(1,2,3)              125.747          calculate D2E/DX2 analytically  !
 ! A8    A(1,2,9)              126.0051         calculate D2E/DX2 analytically  !
 ! A9    A(3,2,9)              108.2475         calculate D2E/DX2 analytically  !
 ! A10   A(2,3,4)              120.4425         calculate D2E/DX2 analytically  !
 ! A11   A(2,3,5)              110.19           calculate D2E/DX2 analytically  !
 ! A12   A(4,3,5)              129.3654         calculate D2E/DX2 analytically  !
 ! A13   A(3,5,6)              125.7731         calculate D2E/DX2 analytically  !
 ! A14   A(3,5,7)              106.6078         calculate D2E/DX2 analytically  !
 ! A15   A(6,5,7)              127.6132         calculate D2E/DX2 analytically  !
 ! A16   A(5,7,8)              127.6313         calculate D2E/DX2 analytically  !
 ! A17   A(5,7,9)              107.0369         calculate D2E/DX2 analytically  !
 ! A18   A(8,7,9)              125.3163         calculate D2E/DX2 analytically  !
 ! A19   A(2,9,7)              107.9156         calculate D2E/DX2 analytically  !
 ! A20   A(2,9,10)             121.0672         calculate D2E/DX2 analytically  !
 ! A21   A(7,9,10)             130.8781         calculate D2E/DX2 analytically  !
 ! A22   A(9,10,18)            119.901          calculate D2E/DX2 analytically  !
 ! A23   A(9,10,21)            119.8579         calculate D2E/DX2 analytically  !
 ! A24   A(18,10,21)           120.2369         calculate D2E/DX2 analytically  !
 ! A25   A(1,11,12)            125.4557         calculate D2E/DX2 analytically  !
 ! A26   A(1,11,18)            125.9225         calculate D2E/DX2 analytically  !
 ! A27   A(12,11,18)           108.2289         calculate D2E/DX2 analytically  !
 ! A28   A(11,12,13)           120.446          calculate D2E/DX2 analytically  !
 ! A29   A(11,12,14)           110.2077         calculate D2E/DX2 analytically  !
 ! A30   A(13,12,14)           129.3425         calculate D2E/DX2 analytically  !
 ! A31   A(12,14,15)           125.7969         calculate D2E/DX2 analytically  !
 ! A32   A(12,14,16)           106.606          calculate D2E/DX2 analytically  !
 ! A33   A(15,14,16)           127.5957         calculate D2E/DX2 analytically  !
 ! A34   A(14,16,17)           127.5689         calculate D2E/DX2 analytically  !
 ! A35   A(14,16,18)           107.0424         calculate D2E/DX2 analytically  !
 ! A36   A(17,16,18)           125.3861         calculate D2E/DX2 analytically  !
 ! A37   A(10,18,11)           120.9747         calculate D2E/DX2 analytically  !
 ! A38   A(10,18,16)           131.112          calculate D2E/DX2 analytically  !
 ! A39   A(11,18,16)           107.9105         calculate D2E/DX2 analytically  !
 ! A40   A(10,21,22)           120.1681         calculate D2E/DX2 analytically  !
 ! A41   A(10,21,29)           120.4253         calculate D2E/DX2 analytically  !
 ! A42   A(22,21,29)           119.4062         calculate D2E/DX2 analytically  !
 ! A43   A(21,22,23)           119.4729         calculate D2E/DX2 analytically  !
 ! A44   A(21,22,24)           120.1669         calculate D2E/DX2 analytically  !
 ! A45   A(23,22,24)           120.343          calculate D2E/DX2 analytically  !
 ! A46   A(22,24,25)           119.6603         calculate D2E/DX2 analytically  !
 ! A47   A(22,24,26)           120.1638         calculate D2E/DX2 analytically  !
 ! A48   A(25,24,26)           120.1757         calculate D2E/DX2 analytically  !
 ! A49   A(24,26,27)           119.9239         calculate D2E/DX2 analytically  !
 ! A50   A(24,26,31)           120.0392         calculate D2E/DX2 analytically  !
 ! A51   A(27,26,31)           120.0369         calculate D2E/DX2 analytically  !
 ! A52   A(26,27,28)           120.1712         calculate D2E/DX2 analytically  !
 ! A53   A(26,27,29)           120.1725         calculate D2E/DX2 analytically  !
 ! A54   A(28,27,29)           119.656          calculate D2E/DX2 analytically  !
 ! A55   A(21,29,27)           120.1614         calculate D2E/DX2 analytically  !
 ! A56   A(21,29,30)           119.5082         calculate D2E/DX2 analytically  !
 ! A57   A(27,29,30)           120.309          calculate D2E/DX2 analytically  !
 ! D1    D(11,1,2,3)          -171.729          calculate D2E/DX2 analytically  !
 ! D2    D(11,1,2,9)             7.9925         calculate D2E/DX2 analytically  !
 ! D3    D(19,1,2,3)           -52.4114         calculate D2E/DX2 analytically  !
 ! D4    D(19,1,2,9)           127.31           calculate D2E/DX2 analytically  !
 ! D5    D(20,1,2,3)            69.9411         calculate D2E/DX2 analytically  !
 ! D6    D(20,1,2,9)          -110.3375         calculate D2E/DX2 analytically  !
 ! D7    D(2,1,11,12)          178.3265         calculate D2E/DX2 analytically  !
 ! D8    D(2,1,11,18)           -9.7273         calculate D2E/DX2 analytically  !
 ! D9    D(19,1,11,12)          59.2559         calculate D2E/DX2 analytically  !
 ! D10   D(19,1,11,18)        -128.798          calculate D2E/DX2 analytically  !
 ! D11   D(20,1,11,12)         -63.0247         calculate D2E/DX2 analytically  !
 ! D12   D(20,1,11,18)         108.9214         calculate D2E/DX2 analytically  !
 ! D13   D(1,2,3,4)              0.228          calculate D2E/DX2 analytically  !
 ! D14   D(1,2,3,5)            179.7567         calculate D2E/DX2 analytically  !
 ! D15   D(9,2,3,4)           -179.5348         calculate D2E/DX2 analytically  !
 ! D16   D(9,2,3,5)             -0.006          calculate D2E/DX2 analytically  !
 ! D17   D(1,2,9,7)           -179.4693         calculate D2E/DX2 analytically  !
 ! D18   D(1,2,9,10)            -3.315          calculate D2E/DX2 analytically  !
 ! D19   D(3,2,9,7)              0.2927         calculate D2E/DX2 analytically  !
 ! D20   D(3,2,9,10)           176.447          calculate D2E/DX2 analytically  !
 ! D21   D(2,3,5,6)           -179.4601         calculate D2E/DX2 analytically  !
 ! D22   D(2,3,5,7)             -0.2873         calculate D2E/DX2 analytically  !
 ! D23   D(4,3,5,6)              0.0143         calculate D2E/DX2 analytically  !
 ! D24   D(4,3,5,7)            179.1872         calculate D2E/DX2 analytically  !
 ! D25   D(3,5,7,8)           -178.1616         calculate D2E/DX2 analytically  !
 ! D26   D(3,5,7,9)              0.454          calculate D2E/DX2 analytically  !
 ! D27   D(6,5,7,8)              0.9912         calculate D2E/DX2 analytically  !
 ! D28   D(6,5,7,9)            179.6068         calculate D2E/DX2 analytically  !
 ! D29   D(5,7,9,2)             -0.4671         calculate D2E/DX2 analytically  !
 ! D30   D(5,7,9,10)          -176.1095         calculate D2E/DX2 analytically  !
 ! D31   D(8,7,9,2)            178.1893         calculate D2E/DX2 analytically  !
 ! D32   D(8,7,9,10)             2.5469         calculate D2E/DX2 analytically  !
 ! D33   D(2,9,10,18)           -1.4312         calculate D2E/DX2 analytically  !
 ! D34   D(2,9,10,21)          179.3128         calculate D2E/DX2 analytically  !
 ! D35   D(7,9,10,18)          173.7271         calculate D2E/DX2 analytically  !
 ! D36   D(7,9,10,21)           -5.5289         calculate D2E/DX2 analytically  !
 ! D37   D(9,10,18,11)          -0.2417         calculate D2E/DX2 analytically  !
 ! D38   D(9,10,18,16)         179.0731         calculate D2E/DX2 analytically  !
 ! D39   D(21,10,18,11)        179.0115         calculate D2E/DX2 analytically  !
 ! D40   D(21,10,18,16)         -1.6737         calculate D2E/DX2 analytically  !
 ! D41   D(9,10,21,22)         -53.1942         calculate D2E/DX2 analytically  !
 ! D42   D(9,10,21,29)         126.5694         calculate D2E/DX2 analytically  !
 ! D43   D(18,10,21,22)        127.5524         calculate D2E/DX2 analytically  !
 ! D44   D(18,10,21,29)        -52.6841         calculate D2E/DX2 analytically  !
 ! D45   D(1,11,12,13)          -6.2444         calculate D2E/DX2 analytically  !
 ! D46   D(1,11,12,14)         173.1069         calculate D2E/DX2 analytically  !
 ! D47   D(18,11,12,13)       -179.3839         calculate D2E/DX2 analytically  !
 ! D48   D(18,11,12,14)         -0.0325         calculate D2E/DX2 analytically  !
 ! D49   D(1,11,18,10)           6.7973         calculate D2E/DX2 analytically  !
 ! D50   D(1,11,18,16)        -172.6602         calculate D2E/DX2 analytically  !
 ! D51   D(12,11,18,10)        179.8963         calculate D2E/DX2 analytically  !
 ! D52   D(12,11,18,16)          0.4388         calculate D2E/DX2 analytically  !
 ! D53   D(11,12,14,15)       -179.9889         calculate D2E/DX2 analytically  !
 ! D54   D(11,12,14,16)         -0.3927         calculate D2E/DX2 analytically  !
 ! D55   D(13,12,14,15)         -0.712          calculate D2E/DX2 analytically  !
 ! D56   D(13,12,14,16)        178.8843         calculate D2E/DX2 analytically  !
 ! D57   D(12,14,16,17)       -178.7867         calculate D2E/DX2 analytically  !
 ! D58   D(12,14,16,18)          0.6442         calculate D2E/DX2 analytically  !
 ! D59   D(15,14,16,17)          0.8            calculate D2E/DX2 analytically  !
 ! D60   D(15,14,16,18)       -179.769          calculate D2E/DX2 analytically  !
 ! D61   D(14,16,18,10)        179.9405         calculate D2E/DX2 analytically  !
 ! D62   D(14,16,18,11)         -0.6769         calculate D2E/DX2 analytically  !
 ! D63   D(17,16,18,10)         -0.6128         calculate D2E/DX2 analytically  !
 ! D64   D(17,16,18,11)        178.7698         calculate D2E/DX2 analytically  !
 ! D65   D(10,21,22,23)         -1.2944         calculate D2E/DX2 analytically  !
 ! D66   D(10,21,22,24)       -179.7947         calculate D2E/DX2 analytically  !
 ! D67   D(29,21,22,23)        178.9396         calculate D2E/DX2 analytically  !
 ! D68   D(29,21,22,24)          0.4394         calculate D2E/DX2 analytically  !
 ! D69   D(10,21,29,27)       -179.528          calculate D2E/DX2 analytically  !
 ! D70   D(10,21,29,30)         -1.2075         calculate D2E/DX2 analytically  !
 ! D71   D(22,21,29,27)          0.2374         calculate D2E/DX2 analytically  !
 ! D72   D(22,21,29,30)        178.5578         calculate D2E/DX2 analytically  !
 ! D73   D(21,22,24,25)        179.1502         calculate D2E/DX2 analytically  !
 ! D74   D(21,22,24,26)         -0.7065         calculate D2E/DX2 analytically  !
 ! D75   D(23,22,24,25)          0.6631         calculate D2E/DX2 analytically  !
 ! D76   D(23,22,24,26)       -179.1936         calculate D2E/DX2 analytically  !
 ! D77   D(22,24,26,27)          0.2946         calculate D2E/DX2 analytically  !
 ! D78   D(22,24,26,31)       -179.6526         calculate D2E/DX2 analytically  !
 ! D79   D(25,24,26,27)       -179.5613         calculate D2E/DX2 analytically  !
 ! D80   D(25,24,26,31)          0.4915         calculate D2E/DX2 analytically  !
 ! D81   D(24,26,27,28)       -179.4054         calculate D2E/DX2 analytically  !
 ! D82   D(24,26,27,29)          0.3839         calculate D2E/DX2 analytically  !
 ! D83   D(31,26,27,28)          0.5418         calculate D2E/DX2 analytically  !
 ! D84   D(31,26,27,29)       -179.6689         calculate D2E/DX2 analytically  !
 ! D85   D(26,27,29,21)         -0.6493         calculate D2E/DX2 analytically  !
 ! D86   D(26,27,29,30)       -178.9562         calculate D2E/DX2 analytically  !
 ! D87   D(28,27,29,21)        179.1411         calculate D2E/DX2 analytically  !
 ! D88   D(28,27,29,30)          0.8342         calculate D2E/DX2 analytically  !
 --------------------------------------------------------------------------------
 Trust Radius=3.00D-01 FncErr=5.00D-06 GrdErr=5.00D-06 EigMax=2.50D+02 EigMin=1.00D-04
 Number of steps in this run=    186 maximum allowed number of steps=    186.
 GradGradGradGradGradGradGradGradGradGradGradGradGradGradGradGradGradGrad

 Leave Link  103 at Tue Feb  1 06:32:02 2022, MaxMem= 11408506880 cpu:               0.1 elap:               0.0
 (Enter /lustre1/prg/gaussian/bin/G16_C01_Linda9.2_SSE4/g16/l202.exe)
                          Input orientation:                          
 ---------------------------------------------------------------------
 Center     Atomic      Atomic             Coordinates (Angstroms)
 Number     Number       Type             X           Y           Z
 ---------------------------------------------------------------------
      1          5           0       -0.004686   -0.107152    0.005226
      2          7           0        0.003548   -0.034800    1.560532
      3          6           0        1.091421    0.033991    2.332896
      4          1           0        2.083673    0.047162    1.887420
      5          6           0        0.720322    0.091400    3.692526
      6          1           0        1.402293    0.160633    4.533920
      7          6           0       -0.667171    0.061134    3.726743
      8          1           0       -1.310438    0.116342    4.600311
      9          6           0       -1.114442   -0.025116    2.382722
     10          6           0       -2.410750   -0.013491    1.843035
     11          7           0       -1.499087    0.044745   -0.408802
     12          6           0       -1.956852    0.070138   -1.663643
     13          1           0       -1.264713    0.083072   -2.502719
     14          6           0       -3.367211    0.060949   -1.668014
     15          1           0       -3.999396    0.076583   -2.550027
     16          6           0       -3.767823    0.019114   -0.339442
     17          1           0       -4.782894   -0.017180    0.045352
     18          6           0       -2.589001    0.018861    0.450605
     19          9           0        0.756717    0.926383   -0.527040
     20          9           0        0.477796   -1.341339   -0.421102
     21          6           0       -3.583787   -0.018728    2.744297
     22          6           0       -3.704225   -1.000408    3.738689
     23          1           0       -2.937387   -1.771143    3.827681
     24          6           0       -4.810726   -1.007863    4.584417
     25          1           0       -4.902855   -1.783062    5.345534
     26          6           0       -5.797590   -0.030121    4.456265
     27          6           0       -5.678943    0.953982    3.474528
     28          1           0       -6.442924    1.725709    3.377094
     29          6           0       -4.581809    0.958273    2.616723
     30          1           0       -4.478169    1.736484    1.859444
     31          1           0       -6.660297   -0.034554    5.123247
 ---------------------------------------------------------------------
                    Distance matrix (angstroms):
                    1          2          3          4          5
     1  B    0.000000
     2  N    1.557010   0.000000
     3  C    2.576707   1.335944   0.000000
     4  H    2.815619   2.107248   1.087744   0.000000
     5  C    3.763142   2.252796   1.410533   2.262541   0.000000
     6  H    4.749776   3.291765   2.226474   2.735163   1.085275
     7  C    3.783767   2.269700   2.244146   3.309146   1.388245
     8  H    4.782232   3.315066   3.304070   4.345636   2.224563
     9  C    2.625029   1.387801   2.207217   3.237049   2.257326
    10  C    3.029102   2.430863   3.536583   4.495051   3.638026
    11  N    1.558116   2.478410   3.771970   4.255445   4.663566
    12  C    2.574395   3.774849   5.026490   5.379258   5.988010
    13  H    2.813120   4.258214   5.379307   5.521440   6.505497
    14  C    3.759596   4.668479   5.990610   6.507952   6.741234
    15  H    4.745607   5.738699   7.054160   7.529643   7.825946
    16  C    3.780997   4.223274   5.545617   6.260967   6.033692
    17  H    4.779223   5.020568   6.304209   7.109648   6.602958
    18  C    2.625438   2.820661   4.133855   4.888673   4.633242
    19  F    1.389689   2.418490   3.014569   2.891965   4.301541
    20  F    1.392035   2.420502   3.138881   3.136248   4.362739
    21  C    4.507804   3.777636   4.693570   5.732249   4.408698
    22  C    5.331345   4.407306   5.103377   6.166390   4.557498
    23  H    5.097133   4.099262   4.660921   5.681715   4.106844
    24  C    6.699126   5.767839   6.402355   7.477941   5.709321
    25  H    7.437716   6.438591   6.950469   8.007487   6.153549
    26  C    7.305848   6.483710   7.209111   8.289707   6.563630
    27  C    6.734928   6.077152   6.927304   7.974926   6.460818
    28  H    7.495317   6.925048   7.792215   8.817001   7.354084
    29  C    5.376347   4.809078   5.755032   6.766879   5.479180
    30  H    5.181618   4.828311   5.843199   6.775866   5.752460
    31  H    8.396223   7.556439   8.238925   9.323855   7.519067
                    6          7          8          9         10
     6  H    0.000000
     7  C    2.223537   0.000000
     8  H    2.713905   1.086260   0.000000
     9  C    3.316038   1.419113   2.230723   0.000000
    10  C    4.670169   2.567877   2.971551   1.404212   0.000000
    11  N    5.732533   4.218422   5.013175   2.818765   2.430080
    12  C    7.049953   5.542528   6.297389   4.134223   3.536921
    13  H    7.525505   6.258094   7.103255   4.888949   4.495365
    14  C    7.824455   6.032712   6.597369   4.635821   3.639756
    15  H    8.908850   7.106462   7.639333   5.715358   4.672355
    16  C    7.106320   5.113675   5.518093   3.801653   2.570198
    17  H    7.644305   5.522495   5.729174   4.349816   2.976364
    18  C    5.711741   3.798460   4.343304   2.430912   1.404166
    19  F    5.159114   4.568455   5.587399   3.587938   4.066136
    20  F    5.259549   4.525759   5.526048   3.482685   3.902973
    21  C    5.300558   3.078673   2.937881   2.495685   1.479296
    22  C    5.296880   3.217252   2.778442   3.081691   2.498117
    23  H    4.802432   2.919128   2.608931   2.908547   2.702870
    24  C    6.322147   4.364334   3.676426   4.413136   3.776749
    25  H    6.647673   4.895157   4.131411   5.120615   4.648599
    26  C    7.202828   5.182830   4.491852   5.121668   4.277842
    27  C    7.203861   5.096925   4.588340   4.794303   3.778738
    28  H    8.083015   6.020996   5.516225   5.696217   4.651514
    29  C    6.334142   4.166701   3.917313   3.611709   2.501283
    30  H    6.649508   4.562599   4.491295   3.832977   2.708672
    31  H    8.086455   6.154424   5.377474   6.186039   5.368322
                   11         12         13         14         15
    11  N    0.000000
    12  C    1.335971   0.000000
    13  H    2.107342   1.087783   0.000000
    14  C    2.252946   1.410396   2.262238   0.000000
    15  H    3.292021   2.226590   2.735100   1.085288   0.000000
    16  C    2.269941   2.244043   3.308990   1.388288   2.223424
    17  H    3.315642   3.303756   4.345148   2.223935   2.712684
    18  C    1.388223   2.207326   3.237280   2.257416   3.316073
    19  F    2.424854   3.064062   2.949688   4.365499   5.237867
    20  F    2.414425   3.076311   3.065683   4.278467   5.156362
    21  C    3.780481   4.699441   5.737564   4.418342   5.311467
    22  C    4.812137   5.777938   6.788249   5.520190   6.387095
    23  H    4.828452   5.874215   6.805139   5.808956   6.724367
    24  C    6.083352   6.953052   7.999490   6.505305   7.261857
    25  H    6.931010   7.825717   8.849498   7.412721   8.161765
    26  C    6.492427   7.225967   8.305856   6.589524   7.234156
    27  C    5.777383   6.405930   7.481403   5.708533   6.315534
    28  H    6.449820   6.948006   8.005269   6.138774   6.619759
    29  C    4.414919   5.099090   6.162612   4.543062   5.273698
    30  H    4.108753   4.641755   5.664674   4.060124   4.735813
    31  H    7.566237   8.258040   9.342458   7.548163   8.122308
                   16         17         18         19         20
    16  C    0.000000
    17  H    1.086164   0.000000
    18  C    1.419083   2.231299   0.000000
    19  F    4.618419   5.648472   3.601835   0.000000
    20  F    4.459011   5.444799   3.466304   2.287265   0.000000
    21  C    3.089457   2.953331   2.500407   5.516779   5.316531
    22  C    4.204120   3.971272   3.618581   6.465986   5.908417
    23  H    4.610809   4.559418   3.837985   6.315588   5.468122
    24  C    5.136800   4.646002   4.804022   7.801585   7.289368
    25  H    6.070839   5.587903   5.706240   8.594124   7.899406
    26  C    5.207800   4.526138   5.132519   8.288979   8.055338
    27  C    4.367233   3.674957   4.423381   7.578326   7.638708
    28  H    4.886847   4.110215   5.131315   8.228974   8.469324
    29  C    3.206790   2.757516   3.089635   6.195492   6.333735
    30  H    2.879071   2.541481   2.916164   5.809957   6.263823
    31  H    6.181445   5.413868   6.197732   9.373433   9.132353
                   21         22         23         24         25
    21  C    0.000000
    22  C    1.402504   0.000000
    23  H    2.159285   1.090868   0.000000
    24  C    2.422769   1.392715   2.159779   0.000000
    25  H    3.408702   2.152025   2.483361   1.090285   0.000000
    26  C    2.798551   2.416309   3.406910   1.395100   2.159665
    27  C    2.422619   2.790866   3.881643   2.415469   3.405053
    28  H    3.408542   3.881100   4.971900   3.405013   4.307905
    29  C    1.402446   2.421857   3.408849   2.791042   3.881288
    30  H    2.159549   3.408978   4.307135   3.881689   4.971960
    31  H    3.889032   3.404150   4.307469   2.158375   2.489035
                   26         27         28         29         30
    26  C    0.000000
    27  C    1.395114   0.000000
    28  H    2.159631   1.090286   0.000000
    29  C    2.416394   1.392678   2.151946   0.000000
    30  H    3.406647   2.159320   2.482668   1.090791   0.000000
    31  H    1.090481   2.158364   2.488941   3.404186   4.307049
                   31
    31  H    0.000000
 Symmetry turned off by external request.
 Stoichiometry    C15H11BF2N2
 Framework group  C1[X(C15H11BF2N2)]
 Deg. of freedom    87
 Full point group                 C1      NOp   1
 Rotational constants (GHZ):           0.5801125           0.2825441           0.2065986
 Leave Link  202 at Tue Feb  1 06:32:02 2022, MaxMem= 11408506880 cpu:               0.1 elap:               0.0
 (Enter /lustre1/prg/gaussian/bin/G16_C01_Linda9.2_SSE4/g16/l301.exe)
 Standard basis: CC-pVDZ (5D, 7F)
 Ernie: Thresh=  0.10000D-02 Tol=  0.10000D-05 Strict=F.
 Ernie:  40 primitive shells out of 495 were deleted.
   335 basis functions,   737 primitive gaussians,   355 cartesian basis functions
    69 alpha electrons       69 beta electrons
       nuclear repulsion energy      1470.3616980773 Hartrees.
 IExCor= 4336 DFT=T Ex+Corr=M062X ExCW=0 ScaHFX=  0.540000
 ScaDFX=  1.000000  1.000000  1.000000  1.000000 ScalE2=  1.000000  1.000000
 IRadAn=      5 IRanWt=     -1 IRanGd=            0 ICorTp=0 IEmpDi=  4
 NAtoms=   31 NActive=   31 NUniq=   31 SFac= 1.00D+00 NAtFMM=   60 NAOKFM=F Big=F
 Integral buffers will be    131072 words long.
 Raffenetti 2 integral format.
 Two-electron integral symmetry is turned off.
 Force inversion solution in PCM.
 ------------------------------------------------------------------------------
 Polarizable Continuum Model (PCM)
 =================================
 Model                : C-PCM.
 Atomic radii         : UFF (Universal Force Field).
 Polarization charges : Total charges.
 Charge compensation  : None.
 Solution method      : Matrix inversion.
 Cavity type          : Scaled VdW (van der Waals Surface) (Alpha=1.100).
 Cavity algorithm     : GePol (No added spheres)
                        Default sphere list used, NSphG=   31.
                        Lebedev-Laikov grids with approx.  5.0 points / Ang**2.
                        Smoothing algorithm: York/Karplus (Gamma=1.0000).
                        Polarization charges: spherical gaussians, with
                                              point-specific exponents (IZeta= 3).
                        Self-potential: point-specific (ISelfS= 7).
                        Self-field    : sphere-specific E.n sum rule (ISelfD= 2).
 1st derivatives      : Analytical E(r).r(x)/FMM algorithm (CHGder, D1EAlg=3).
                        Cavity 1st derivative terms included.
 2nd derivatives      : Analytical E(r).r(xy)/FMM algorithm (CHGder, D2EAlg=3).
                        Cavity 2nd derivative terms included.
 Solvent              : DiMethylSulfoxide, Eps=  46.826000 Eps(inf)=   2.007889
 ------------------------------------------------------------------------------
 GePol: Number of generator spheres                  =      31
 GePol: Total number of spheres                      =      31
 GePol: Number of exposed spheres                    =      31 (100.00%)
 GePol: Number of points                             =    2482
 GePol: Average weight of points                     =       0.13
 GePol: Minimum weight of points                     =   0.79D-11
 GePol: Maximum weight of points                     =    0.20577
 GePol: Number of points with low weight             =     149
 GePol: Fraction of low-weight points (<1% of avg)   =       6.00%
 GePol: Cavity surface area                          =    315.576 Ang**2
 GePol: Cavity volume                                =    347.017 Ang**3
 Leave Link  301 at Tue Feb  1 06:32:03 2022, MaxMem= 11408506880 cpu:               1.3 elap:               0.1
@@@@@@@@@@@@@@@@@@@@@@@@@@@@@@@@@@@@@@@@@@@@@@@@@@@@@@@@@@@
@@@@@@@@@@@@@@@@@@@@@@@@@@@@@@@@@@@@@@@@@@@@@@@@@@@@@@@@@@@
@    WARNING: REMOTE HOST IDENTIFICATION HAS CHANGED!     @
@    WARNING: REMOTE HOST IDENTIFICATION HAS CHANGED!     @
@@@@@@@@@@@@@@@@@@@@@@@@@@@@@@@@@@@@@@@@@@@@@@@@@@@@@@@@@@@
@@@@@@@@@@@@@@@@@@@@@@@@@@@@@@@@@@@@@@@@@@@@@@@@@@@@@@@@@@@
IT IS POSSIBLE THAT SOMEONE IS DOING SOMETHING NASTY!
IT IS POSSIBLE THAT SOMEONE IS DOING SOMETHING NASTY!
Someone could be eavesdropping on you right now (man-in-the-middle attack)!
Someone could be eavesdropping on you right now (man-in-the-middle attack)!
@@@@@@@@@@@@@@@@@@@@@@@@@@@@@@@@@@@@@@@@@@@@@@@@@@@@@@@@@@@
It is also possible that a host key has just been changed.
It is also possible that a host key has just been changed.
@    WARNING: REMOTE HOST IDENTIFICATION HAS CHANGED!     @
The fingerprint for the ECDSA key sent by the remote host is
SHA256:GrKekbUI0EXjIn2+8KWdVGCxz/8JpOOEF1MyBm+WVPs.
@@@@@@@@@@@@@@@@@@@@@@@@@@@@@@@@@@@@@@@@@@@@@@@@@@@@@@@@@@@
The fingerprint for the ECDSA key sent by the remote host is
SHA256:Ki/B3btCxo943N1v5zDKOfUYHONPxVQ2BEdbCqI5VQc.
Please contact your system administrator.
IT IS POSSIBLE THAT SOMEONE IS DOING SOMETHING NASTY!
Please contact your system administrator.
Add correct host key in /lustre2/home/toliste/.ssh/known_hosts to get rid of this message.
Someone could be eavesdropping on you right now (man-in-the-middle attack)!
Add correct host key in /lustre2/home/toliste/.ssh/known_hosts to get rid of this message.
It is also possible that a host key has just been changed.
Offending ECDSA key in /lustre2/home/toliste/.ssh/known_hosts:76
Offending ECDSA key in /lustre2/home/toliste/.ssh/known_hosts:75
Password authentication is disabled to avoid man-in-the-middle attacks.
The fingerprint for the ECDSA key sent by the remote host is
SHA256:Ig8LihuAfIQ06SMELJzN8hUGL3IF4hxP55+N5V8AdXA.
Password authentication is disabled to avoid man-in-the-middle attacks.
Keyboard-interactive authentication is disabled to avoid man-in-the-middle attacks.
Please contact your system administrator.
Keyboard-interactive authentication is disabled to avoid man-in-the-middle attacks.
Add correct host key in /lustre2/home/toliste/.ssh/known_hosts to get rid of this message.
Offending ECDSA key in /lustre2/home/toliste/.ssh/known_hosts:135
Password authentication is disabled to avoid man-in-the-middle attacks.
Keyboard-interactive authentication is disabled to avoid man-in-the-middle attacks.
@@@@@@@@@@@@@@@@@@@@@@@@@@@@@@@@@@@@@@@@@@@@@@@@@@@@@@@@@@@
@    WARNING: REMOTE HOST IDENTIFICATION HAS CHANGED!     @
@@@@@@@@@@@@@@@@@@@@@@@@@@@@@@@@@@@@@@@@@@@@@@@@@@@@@@@@@@@
IT IS POSSIBLE THAT SOMEONE IS DOING SOMETHING NASTY!
Someone could be eavesdropping on you right now (man-in-the-middle attack)!
It is also possible that a host key has just been changed.
The fingerprint for the ECDSA key sent by the remote host is
SHA256:800ICgCQYNCAEDeUW1SwBVSf1e3qTb6ovHlMpmKSz/k.
Please contact your system administrator.
Add correct host key in /lustre2/home/toliste/.ssh/known_hosts to get rid of this message.
Offending ECDSA key in /lustre2/home/toliste/.ssh/known_hosts:102
Password authentication is disabled to avoid man-in-the-middle attacks.
Keyboard-interactive authentication is disabled to avoid man-in-the-middle attacks.
@@@@@@@@@@@@@@@@@@@@@@@@@@@@@@@@@@@@@@@@@@@@@@@@@@@@@@@@@@@
@    WARNING: REMOTE HOST IDENTIFICATION HAS CHANGED!     @
@@@@@@@@@@@@@@@@@@@@@@@@@@@@@@@@@@@@@@@@@@@@@@@@@@@@@@@@@@@
IT IS POSSIBLE THAT SOMEONE IS DOING SOMETHING NASTY!
Someone could be eavesdropping on you right now (man-in-the-middle attack)!
It is also possible that a host key has just been changed.
The fingerprint for the ECDSA key sent by the remote host is
SHA256:KX001MXmKX1SZsVdeUgJ5vP9GhgFy5i+dR3x9qKC5Vs.
Please contact your system administrator.
Add correct host key in /lustre2/home/toliste/.ssh/known_hosts to get rid of this message.
Offending ECDSA key in /lustre2/home/toliste/.ssh/known_hosts:103
Password authentication is disabled to avoid man-in-the-middle attacks.
Keyboard-interactive authentication is disabled to avoid man-in-the-middle attacks.
@@@@@@@@@@@@@@@@@@@@@@@@@@@@@@@@@@@@@@@@@@@@@@@@@@@@@@@@@@@
@    WARNING: REMOTE HOST IDENTIFICATION HAS CHANGED!     @
@@@@@@@@@@@@@@@@@@@@@@@@@@@@@@@@@@@@@@@@@@@@@@@@@@@@@@@@@@@
IT IS POSSIBLE THAT SOMEONE IS DOING SOMETHING NASTY!
Someone could be eavesdropping on you right now (man-in-the-middle attack)!
It is also possible that a host key has just been changed.
The fingerprint for the ECDSA key sent by the remote host is
SHA256:8rjYfDO3JlbDXTefHWc6TrhQ35S4vzq+Jw4FkJeir7c.
Please contact your system administrator.
Add correct host key in /lustre2/home/toliste/.ssh/known_hosts to get rid of this message.
Offending ECDSA key in /lustre2/home/toliste/.ssh/known_hosts:43
Password authentication is disabled to avoid man-in-the-middle attacks.
Keyboard-interactive authentication is disabled to avoid man-in-the-middle attacks.
 (Enter /lustre1/prg/gaussian/bin/G16_C01_Linda9.2_SSE4/g16/linda-exe/l302.exel)
 NPDir=0 NMtPBC=     1 NCelOv=     1 NCel=       1 NClECP=     1 NCelD=      1
         NCelK=      1 NCelE2=     1 NClLst=     1 CellRange=     0.0.
 One-electron integrals computed using PRISM.
 NBasis=   335 RedAO= T EigKep=  2.50D-04  NBF=   335
 NBsUse=   335 1.00D-06 EigRej= -1.00D+00 NBFU=   335
 Precomputing XC quadrature grid using
 IXCGrd= 4 IRadAn=           5 IRanWt=          -1 IRanGd=           0 AccXCQ= 0.00D+00.
 Generated NRdTot=       0 NPtTot=           0 NUsed=           0 NTot=          32
 NSgBfM=   354   354   354   354   354 MxSgAt=    31 MxSgA2=    31.
 Leave Link  302 at Tue Feb  1 06:32:07 2022, MaxMem= 11408506880 cpu:              18.5 elap:               1.6
 (Enter /lustre1/prg/gaussian/bin/G16_C01_Linda9.2_SSE4/g16/l303.exe)
 DipDrv:  MaxL=1.
 Leave Link  303 at Tue Feb  1 06:32:07 2022, MaxMem= 11408506880 cpu:               1.5 elap:               0.3
@@@@@@@@@@@@@@@@@@@@@@@@@@@@@@@@@@@@@@@@@@@@@@@@@@@@@@@@@@@
@    WARNING: REMOTE HOST IDENTIFICATION HAS CHANGED!     @
@@@@@@@@@@@@@@@@@@@@@@@@@@@@@@@@@@@@@@@@@@@@@@@@@@@@@@@@@@@
IT IS POSSIBLE THAT SOMEONE IS DOING SOMETHING NASTY!
Someone could be eavesdropping on you right now (man-in-the-middle attack)!
It is also possible that a host key has just been changed.
The fingerprint for the ECDSA key sent by the remote host is
SHA256:Ki/B3btCxo943N1v5zDKOfUYHONPxVQ2BEdbCqI5VQc.
Please contact your system administrator.
Add correct host key in /lustre2/home/toliste/.ssh/known_hosts to get rid of this message.
Offending ECDSA key in /lustre2/home/toliste/.ssh/known_hosts:75
Password authentication is disabled to avoid man-in-the-middle attacks.
Keyboard-interactive authentication is disabled to avoid man-in-the-middle attacks.
@@@@@@@@@@@@@@@@@@@@@@@@@@@@@@@@@@@@@@@@@@@@@@@@@@@@@@@@@@@
@    WARNING: REMOTE HOST IDENTIFICATION HAS CHANGED!     @
@@@@@@@@@@@@@@@@@@@@@@@@@@@@@@@@@@@@@@@@@@@@@@@@@@@@@@@@@@@
IT IS POSSIBLE THAT SOMEONE IS DOING SOMETHING NASTY!
Someone could be eavesdropping on you right now (man-in-the-middle attack)!
It is also possible that a host key has just been changed.
The fingerprint for the ECDSA key sent by the remote host is
SHA256:800ICgCQYNCAEDeUW1SwBVSf1e3qTb6ovHlMpmKSz/k.
Please contact your system administrator.
Add correct host key in /lustre2/home/toliste/.ssh/known_hosts to get rid of this message.
Offending ECDSA key in /lustre2/home/toliste/.ssh/known_hosts:102
Password authentication is disabled to avoid man-in-the-middle attacks.
Keyboard-interactive authentication is disabled to avoid man-in-the-middle attacks.
@@@@@@@@@@@@@@@@@@@@@@@@@@@@@@@@@@@@@@@@@@@@@@@@@@@@@@@@@@@
@    WARNING: REMOTE HOST IDENTIFICATION HAS CHANGED!     @
@@@@@@@@@@@@@@@@@@@@@@@@@@@@@@@@@@@@@@@@@@@@@@@@@@@@@@@@@@@
IT IS POSSIBLE THAT SOMEONE IS DOING SOMETHING NASTY!
Someone could be eavesdropping on you right now (man-in-the-middle attack)!
It is also possible that a host key has just been changed.
The fingerprint for the ECDSA key sent by the remote host is
SHA256:GrKekbUI0EXjIn2+8KWdVGCxz/8JpOOEF1MyBm+WVPs.
Please contact your system administrator.
Add correct host key in /lustre2/home/toliste/.ssh/known_hosts to get rid of this message.
Offending ECDSA key in /lustre2/home/toliste/.ssh/known_hosts:76
Password authentication is disabled to avoid man-in-the-middle attacks.
Keyboard-interactive authentication is disabled to avoid man-in-the-middle attacks.
@@@@@@@@@@@@@@@@@@@@@@@@@@@@@@@@@@@@@@@@@@@@@@@@@@@@@@@@@@@
@    WARNING: REMOTE HOST IDENTIFICATION HAS CHANGED!     @
@@@@@@@@@@@@@@@@@@@@@@@@@@@@@@@@@@@@@@@@@@@@@@@@@@@@@@@@@@@
IT IS POSSIBLE THAT SOMEONE IS DOING SOMETHING NASTY!
Someone could be eavesdropping on you right now (man-in-the-middle attack)!
It is also possible that a host key has just been changed.
The fingerprint for the ECDSA key sent by the remote host is
SHA256:Ig8LihuAfIQ06SMELJzN8hUGL3IF4hxP55+N5V8AdXA.
Please contact your system administrator.
Add correct host key in /lustre2/home/toliste/.ssh/known_hosts to get rid of this message.
Offending ECDSA key in /lustre2/home/toliste/.ssh/known_hosts:135
Password authentication is disabled to avoid man-in-the-middle attacks.
Keyboard-interactive authentication is disabled to avoid man-in-the-middle attacks.
@@@@@@@@@@@@@@@@@@@@@@@@@@@@@@@@@@@@@@@@@@@@@@@@@@@@@@@@@@@
@    WARNING: REMOTE HOST IDENTIFICATION HAS CHANGED!     @
@@@@@@@@@@@@@@@@@@@@@@@@@@@@@@@@@@@@@@@@@@@@@@@@@@@@@@@@@@@
IT IS POSSIBLE THAT SOMEONE IS DOING SOMETHING NASTY!
Someone could be eavesdropping on you right now (man-in-the-middle attack)!
It is also possible that a host key has just been changed.
The fingerprint for the ECDSA key sent by the remote host is
SHA256:8rjYfDO3JlbDXTefHWc6TrhQ35S4vzq+Jw4FkJeir7c.
Please contact your system administrator.
Add correct host key in /lustre2/home/toliste/.ssh/known_hosts to get rid of this message.
Offending ECDSA key in /lustre2/home/toliste/.ssh/known_hosts:43
Password authentication is disabled to avoid man-in-the-middle attacks.
Keyboard-interactive authentication is disabled to avoid man-in-the-middle attacks.
@@@@@@@@@@@@@@@@@@@@@@@@@@@@@@@@@@@@@@@@@@@@@@@@@@@@@@@@@@@
@    WARNING: REMOTE HOST IDENTIFICATION HAS CHANGED!     @
@@@@@@@@@@@@@@@@@@@@@@@@@@@@@@@@@@@@@@@@@@@@@@@@@@@@@@@@@@@
IT IS POSSIBLE THAT SOMEONE IS DOING SOMETHING NASTY!
Someone could be eavesdropping on you right now (man-in-the-middle attack)!
It is also possible that a host key has just been changed.
The fingerprint for the ECDSA key sent by the remote host is
SHA256:KX001MXmKX1SZsVdeUgJ5vP9GhgFy5i+dR3x9qKC5Vs.
Please contact your system administrator.
Add correct host key in /lustre2/home/toliste/.ssh/known_hosts to get rid of this message.
Offending ECDSA key in /lustre2/home/toliste/.ssh/known_hosts:103
Password authentication is disabled to avoid man-in-the-middle attacks.
Keyboard-interactive authentication is disabled to avoid man-in-the-middle attacks.
 (Enter /lustre1/prg/gaussian/bin/G16_C01_Linda9.2_SSE4/g16/linda-exe/l401.exel)
 ExpMin= 9.54D-02 ExpMax= 1.47D+04 ExpMxC= 5.03D+02 IAcc=3 IRadAn=         5 AccDes= 0.00D+00
 Harris functional with IExCor= 1009 and IRadAn=       5 diagonalized for initial guess.
 HarFok:  IExCor= 1009 AccDes= 0.00D+00 IRadAn=         5 IDoV= 1 UseB2=F ITyADJ=14
 ICtDFT=  3500011 ScaDFX=  1.000000  1.000000  1.000000  1.000000
 FoFCou: FMM=F IPFlag=           0 FMFlag=      100000 FMFlg1=           0
         NFxFlg=           0 DoJE=T BraDBF=F KetDBF=T FulRan=T
         wScrn=  0.000000 ICntrl=       500 IOpCl=  0 I1Cent=   200000004 NGrid=           0
         NMat0=    1 NMatS0=      1 NMatT0=    0 NMatD0=    1 NMtDS0=    0 NMtDT0=    0
 Symmetry not used in FoFCou.
 Harris En= -911.580627043332    
 JPrj=0 DoOrth=F DoCkMO=F.
 Leave Link  401 at Tue Feb  1 06:32:13 2022, MaxMem= 11408506880 cpu:              40.6 elap:               3.6
@@@@@@@@@@@@@@@@@@@@@@@@@@@@@@@@@@@@@@@@@@@@@@@@@@@@@@@@@@@
@    WARNING: REMOTE HOST IDENTIFICATION HAS CHANGED!     @
@@@@@@@@@@@@@@@@@@@@@@@@@@@@@@@@@@@@@@@@@@@@@@@@@@@@@@@@@@@
IT IS POSSIBLE THAT SOMEONE IS DOING SOMETHING NASTY!
Someone could be eavesdropping on you right now (man-in-the-middle attack)!
It is also possible that a host key has just been changed.
The fingerprint for the ECDSA key sent by the remote host is
SHA256:800ICgCQYNCAEDeUW1SwBVSf1e3qTb6ovHlMpmKSz/k.
Please contact your system administrator.
Add correct host key in /lustre2/home/toliste/.ssh/known_hosts to get rid of this message.
Offending ECDSA key in /lustre2/home/toliste/.ssh/known_hosts:102
Password authentication is disabled to avoid man-in-the-middle attacks.
Keyboard-interactive authentication is disabled to avoid man-in-the-middle attacks.
@@@@@@@@@@@@@@@@@@@@@@@@@@@@@@@@@@@@@@@@@@@@@@@@@@@@@@@@@@@
@    WARNING: REMOTE HOST IDENTIFICATION HAS CHANGED!     @
@@@@@@@@@@@@@@@@@@@@@@@@@@@@@@@@@@@@@@@@@@@@@@@@@@@@@@@@@@@
IT IS POSSIBLE THAT SOMEONE IS DOING SOMETHING NASTY!
Someone could be eavesdropping on you right now (man-in-the-middle attack)!
It is also possible that a host key has just been changed.
The fingerprint for the ECDSA key sent by the remote host is
SHA256:GrKekbUI0EXjIn2+8KWdVGCxz/8JpOOEF1MyBm+WVPs.
Please contact your system administrator.
Add correct host key in /lustre2/home/toliste/.ssh/known_hosts to get rid of this message.
Offending ECDSA key in /lustre2/home/toliste/.ssh/known_hosts:76
Password authentication is disabled to avoid man-in-the-middle attacks.
Keyboard-interactive authentication is disabled to avoid man-in-the-middle attacks.
@@@@@@@@@@@@@@@@@@@@@@@@@@@@@@@@@@@@@@@@@@@@@@@@@@@@@@@@@@@
@    WARNING: REMOTE HOST IDENTIFICATION HAS CHANGED!     @
@@@@@@@@@@@@@@@@@@@@@@@@@@@@@@@@@@@@@@@@@@@@@@@@@@@@@@@@@@@
IT IS POSSIBLE THAT SOMEONE IS DOING SOMETHING NASTY!
Someone could be eavesdropping on you right now (man-in-the-middle attack)!
It is also possible that a host key has just been changed.
The fingerprint for the ECDSA key sent by the remote host is
SHA256:KX001MXmKX1SZsVdeUgJ5vP9GhgFy5i+dR3x9qKC5Vs.
Please contact your system administrator.
Add correct host key in /lustre2/home/toliste/.ssh/known_hosts to get rid of this message.
Offending ECDSA key in /lustre2/home/toliste/.ssh/known_hosts:103
Password authentication is disabled to avoid man-in-the-middle attacks.
Keyboard-interactive authentication is disabled to avoid man-in-the-middle attacks.
@@@@@@@@@@@@@@@@@@@@@@@@@@@@@@@@@@@@@@@@@@@@@@@@@@@@@@@@@@@
@    WARNING: REMOTE HOST IDENTIFICATION HAS CHANGED!     @
@@@@@@@@@@@@@@@@@@@@@@@@@@@@@@@@@@@@@@@@@@@@@@@@@@@@@@@@@@@
IT IS POSSIBLE THAT SOMEONE IS DOING SOMETHING NASTY!
Someone could be eavesdropping on you right now (man-in-the-middle attack)!
It is also possible that a host key has just been changed.
The fingerprint for the ECDSA key sent by the remote host is
SHA256:Ki/B3btCxo943N1v5zDKOfUYHONPxVQ2BEdbCqI5VQc.
Please contact your system administrator.
Add correct host key in /lustre2/home/toliste/.ssh/known_hosts to get rid of this message.
Offending ECDSA key in /lustre2/home/toliste/.ssh/known_hosts:75
Password authentication is disabled to avoid man-in-the-middle attacks.
Keyboard-interactive authentication is disabled to avoid man-in-the-middle attacks.
@@@@@@@@@@@@@@@@@@@@@@@@@@@@@@@@@@@@@@@@@@@@@@@@@@@@@@@@@@@
@    WARNING: REMOTE HOST IDENTIFICATION HAS CHANGED!     @
@@@@@@@@@@@@@@@@@@@@@@@@@@@@@@@@@@@@@@@@@@@@@@@@@@@@@@@@@@@
IT IS POSSIBLE THAT SOMEONE IS DOING SOMETHING NASTY!
Someone could be eavesdropping on you right now (man-in-the-middle attack)!
It is also possible that a host key has just been changed.
The fingerprint for the ECDSA key sent by the remote host is
SHA256:8rjYfDO3JlbDXTefHWc6TrhQ35S4vzq+Jw4FkJeir7c.
Please contact your system administrator.
Add correct host key in /lustre2/home/toliste/.ssh/known_hosts to get rid of this message.
Offending ECDSA key in /lustre2/home/toliste/.ssh/known_hosts:43
Password authentication is disabled to avoid man-in-the-middle attacks.
Keyboard-interactive authentication is disabled to avoid man-in-the-middle attacks.
@@@@@@@@@@@@@@@@@@@@@@@@@@@@@@@@@@@@@@@@@@@@@@@@@@@@@@@@@@@
@    WARNING: REMOTE HOST IDENTIFICATION HAS CHANGED!     @
@@@@@@@@@@@@@@@@@@@@@@@@@@@@@@@@@@@@@@@@@@@@@@@@@@@@@@@@@@@
IT IS POSSIBLE THAT SOMEONE IS DOING SOMETHING NASTY!
Someone could be eavesdropping on you right now (man-in-the-middle attack)!
It is also possible that a host key has just been changed.
The fingerprint for the ECDSA key sent by the remote host is
SHA256:Ig8LihuAfIQ06SMELJzN8hUGL3IF4hxP55+N5V8AdXA.
Please contact your system administrator.
Add correct host key in /lustre2/home/toliste/.ssh/known_hosts to get rid of this message.
Offending ECDSA key in /lustre2/home/toliste/.ssh/known_hosts:135
Password authentication is disabled to avoid man-in-the-middle attacks.
Keyboard-interactive authentication is disabled to avoid man-in-the-middle attacks.
 (Enter /lustre1/prg/gaussian/bin/G16_C01_Linda9.2_SSE4/g16/linda-exe/l502.exel)
 Two-electron integral symmetry not used.
 Closed shell SCF:
 Using DIIS extrapolation, IDIIS=  1040.
 NGot= 11408506880 LenX= 11408246955 LenY= 11408120489
 Requested convergence on RMS density matrix=1.00D-08 within 128 cycles.
 Requested convergence on MAX density matrix=1.00D-06.
 Requested convergence on             energy=1.00D-06.
 No special actions if energy rises.
 Fock matrices will be formed incrementally for  20 cycles.

 Cycle   1  Pass 1  IDiag  1:
 FoFJK:  IHMeth= 1 ICntrl=       0 DoSepK=F KAlg= 0 I1Cent=           0 FoldK=F
 IRaf= 870000000 NMat=       1 IRICut=       1 DoRegI=T DoRafI=F ISym2E= 0 IDoP0=0 IntGTp=1.
 FoFCou: FMM=F IPFlag=           0 FMFlag=      100000 FMFlg1=           0
         NFxFlg=           0 DoJE=F BraDBF=F KetDBF=F FulRan=T
         wScrn=  0.000000 ICntrl=         0 IOpCl=  0 I1Cent=           0 NGrid=           0
         NMat0=    1 NMatS0=      1 NMatT0=    0 NMatD0=    1 NMtDS0=    0 NMtDT0=    0
 Symmetry not used in FoFCou.
 Inv3:  Mode=1 IEnd=    18480972.
 Iteration    1 A*A^-1 deviation from unit magnitude is 8.66D-15 for    618.
 Iteration    1 A*A^-1 deviation from orthogonality  is 3.47D-15 for   2458   1193.
 Iteration    1 A^-1*A deviation from unit magnitude is 8.66D-15 for    618.
 Iteration    1 A^-1*A deviation from orthogonality  is 1.74D-15 for   1469    413.
 E= -911.877860710366    
 DIIS: error= 2.44D-02 at cycle   1 NSaved=   1.
 NSaved= 1 IEnMin= 1 EnMin= -911.877860710366     IErMin= 1 ErrMin= 2.44D-02
 ErrMax= 2.44D-02  0.00D+00 EMaxC= 1.00D-01 BMatC= 3.32D-01 BMatP= 3.32D-01
 IDIUse=3 WtCom= 7.56D-01 WtEn= 2.44D-01
 Coeff-Com:  0.100D+01
 Coeff-En:   0.100D+01
 Coeff:      0.100D+01
 Gap=     0.177 Goal=   None    Shift=    0.000
 GapD=    0.177 DampG=1.000 DampE=0.500 DampFc=0.5000 IDamp=-1.
 Damping current iteration by 5.00D-01
 RMSDP=3.58D-03 MaxDP=9.72D-02              OVMax= 1.45D-01

 Cycle   2  Pass 1  IDiag  1:
 RMSU=  1.72D-03    CP:  9.74D-01
 E= -912.038574413049     Delta-E=       -0.160713702683 Rises=F Damp=T
 DIIS: error= 7.63D-03 at cycle   2 NSaved=   2.
 NSaved= 2 IEnMin= 2 EnMin= -912.038574413049     IErMin= 2 ErrMin= 7.63D-03
 ErrMax= 7.63D-03  0.00D+00 EMaxC= 1.00D-01 BMatC= 2.85D-02 BMatP= 3.32D-01
 IDIUse=3 WtCom= 9.24D-01 WtEn= 7.63D-02
 Coeff-Com: -0.109D+00 0.111D+01
 Coeff-En:   0.000D+00 0.100D+01
 Coeff:     -0.100D+00 0.110D+01
 Gap=     0.186 Goal=   None    Shift=    0.000
 RMSDP=1.25D-03 MaxDP=6.16D-02 DE=-1.61D-01 OVMax= 8.52D-02

 Cycle   3  Pass 1  IDiag  1:
 RMSU=  9.90D-04    CP:  9.54D-01  1.39D+00
 E= -912.181873540348     Delta-E=       -0.143299127299 Rises=F Damp=F
 DIIS: error= 5.72D-03 at cycle   3 NSaved=   3.
 NSaved= 3 IEnMin= 3 EnMin= -912.181873540348     IErMin= 3 ErrMin= 5.72D-03
 ErrMax= 5.72D-03  0.00D+00 EMaxC= 1.00D-01 BMatC= 1.27D-02 BMatP= 2.85D-02
 IDIUse=3 WtCom= 9.43D-01 WtEn= 5.72D-02
 Coeff-Com: -0.109D+00 0.465D+00 0.644D+00
 Coeff-En:   0.000D+00 0.000D+00 0.100D+01
 Coeff:     -0.103D+00 0.439D+00 0.664D+00
 Gap=     0.177 Goal=   None    Shift=    0.000
 RMSDP=4.32D-04 MaxDP=2.03D-02 DE=-1.43D-01 OVMax= 4.47D-02

 Cycle   4  Pass 1  IDiag  1:
 RMSU=  3.16D-04    CP:  9.56D-01  1.42D+00  7.10D-01
 E= -912.191570006786     Delta-E=       -0.009696466439 Rises=F Damp=F
 DIIS: error= 2.49D-03 at cycle   4 NSaved=   4.
 NSaved= 4 IEnMin= 4 EnMin= -912.191570006786     IErMin= 4 ErrMin= 2.49D-03
 ErrMax= 2.49D-03  0.00D+00 EMaxC= 1.00D-01 BMatC= 2.54D-03 BMatP= 1.27D-02
 IDIUse=3 WtCom= 9.75D-01 WtEn= 2.49D-02
 Coeff-Com: -0.355D-01 0.938D-01 0.346D+00 0.595D+00
 Coeff-En:   0.000D+00 0.000D+00 0.163D+00 0.837D+00
 Coeff:     -0.346D-01 0.915D-01 0.342D+00 0.601D+00
 Gap=     0.180 Goal=   None    Shift=    0.000
 RMSDP=1.51D-04 MaxDP=7.88D-03 DE=-9.70D-03 OVMax= 1.85D-02

 Cycle   5  Pass 1  IDiag  1:
 RMSU=  6.31D-05    CP:  9.55D-01  1.42D+00  7.94D-01  6.56D-01
 E= -912.194063554401     Delta-E=       -0.002493547614 Rises=F Damp=F
 DIIS: error= 3.19D-04 at cycle   5 NSaved=   5.
 NSaved= 5 IEnMin= 5 EnMin= -912.194063554401     IErMin= 5 ErrMin= 3.19D-04
 ErrMax= 3.19D-04  0.00D+00 EMaxC= 1.00D-01 BMatC= 8.31D-05 BMatP= 2.54D-03
 IDIUse=3 WtCom= 9.97D-01 WtEn= 3.19D-03
 Coeff-Com: -0.826D-02 0.131D-01 0.103D+00 0.248D+00 0.644D+00
 Coeff-En:   0.000D+00 0.000D+00 0.000D+00 0.000D+00 0.100D+01
 Coeff:     -0.824D-02 0.130D-01 0.103D+00 0.247D+00 0.645D+00
 Gap=     0.180 Goal=   None    Shift=    0.000
 RMSDP=2.69D-05 MaxDP=1.75D-03 DE=-2.49D-03 OVMax= 2.92D-03

 Cycle   6  Pass 1  IDiag  1:
 RMSU=  1.81D-05    CP:  9.55D-01  1.43D+00  7.97D-01  6.90D-01  7.53D-01
 E= -912.194138268211     Delta-E=       -0.000074713810 Rises=F Damp=F
 DIIS: error= 1.06D-04 at cycle   6 NSaved=   6.
 NSaved= 6 IEnMin= 6 EnMin= -912.194138268211     IErMin= 6 ErrMin= 1.06D-04
 ErrMax= 1.06D-04  0.00D+00 EMaxC= 1.00D-01 BMatC= 5.02D-06 BMatP= 8.31D-05
 IDIUse=3 WtCom= 9.99D-01 WtEn= 1.06D-03
 Coeff-Com: -0.142D-02 0.244D-03 0.213D-01 0.643D-01 0.260D+00 0.656D+00
 Coeff-En:   0.000D+00 0.000D+00 0.000D+00 0.000D+00 0.000D+00 0.100D+01
 Coeff:     -0.142D-02 0.243D-03 0.213D-01 0.642D-01 0.260D+00 0.656D+00
 Gap=     0.180 Goal=   None    Shift=    0.000
 RMSDP=6.94D-06 MaxDP=2.97D-04 DE=-7.47D-05 OVMax= 5.97D-04

 Cycle   7  Pass 1  IDiag  1:
 RMSU=  5.83D-06    CP:  9.55D-01  1.43D+00  7.98D-01  6.91D-01  7.97D-01
                    CP:  8.70D-01
 E= -912.194142984122     Delta-E=       -0.000004715911 Rises=F Damp=F
 DIIS: error= 3.30D-05 at cycle   7 NSaved=   7.
 NSaved= 7 IEnMin= 7 EnMin= -912.194142984122     IErMin= 7 ErrMin= 3.30D-05
 ErrMax= 3.30D-05  0.00D+00 EMaxC= 1.00D-01 BMatC= 3.18D-07 BMatP= 5.02D-06
 IDIUse=1 WtCom= 1.00D+00 WtEn= 0.00D+00
 Coeff-Com:  0.401D-03-0.130D-02-0.414D-02-0.540D-02 0.169D-01 0.173D+00
 Coeff-Com:  0.821D+00
 Coeff:      0.401D-03-0.130D-02-0.414D-02-0.540D-02 0.169D-01 0.173D+00
 Coeff:      0.821D+00
 Gap=     0.180 Goal=   None    Shift=    0.000
 RMSDP=3.06D-06 MaxDP=1.12D-04 DE=-4.72D-06 OVMax= 3.84D-04

 Cycle   8  Pass 1  IDiag  1:
 RMSU=  2.23D-06    CP:  9.55D-01  1.43D+00  7.98D-01  6.94D-01  8.03D-01
                    CP:  9.65D-01  9.95D-01
 E= -912.194143322629     Delta-E=       -0.000000338507 Rises=F Damp=F
 DIIS: error= 1.98D-05 at cycle   8 NSaved=   8.
 NSaved= 8 IEnMin= 8 EnMin= -912.194143322629     IErMin= 8 ErrMin= 1.98D-05
 ErrMax= 1.98D-05  0.00D+00 EMaxC= 1.00D-01 BMatC= 1.37D-07 BMatP= 3.18D-07
 IDIUse=1 WtCom= 1.00D+00 WtEn= 0.00D+00
 Coeff-Com:  0.446D-03-0.753D-03-0.542D-02-0.126D-01-0.302D-01-0.168D-01
 Coeff-Com:  0.448D+00 0.618D+00
 Coeff:      0.446D-03-0.753D-03-0.542D-02-0.126D-01-0.302D-01-0.168D-01
 Coeff:      0.448D+00 0.618D+00
 Gap=     0.180 Goal=   None    Shift=    0.000
 RMSDP=1.30D-06 MaxDP=8.44D-05 DE=-3.39D-07 OVMax= 1.66D-04

 Cycle   9  Pass 1  IDiag  1:
 RMSU=  7.46D-07    CP:  9.55D-01  1.43D+00  7.98D-01  6.94D-01  8.11D-01
                    CP:  9.80D-01  1.09D+00  7.01D-01
 E= -912.194143477511     Delta-E=       -0.000000154882 Rises=F Damp=F
 DIIS: error= 2.51D-06 at cycle   9 NSaved=   9.
 NSaved= 9 IEnMin= 9 EnMin= -912.194143477511     IErMin= 9 ErrMin= 2.51D-06
 ErrMax= 2.51D-06  0.00D+00 EMaxC= 1.00D-01 BMatC= 3.86D-09 BMatP= 1.37D-07
 IDIUse=1 WtCom= 1.00D+00 WtEn= 0.00D+00
 Coeff-Com:  0.959D-04-0.114D-03-0.120D-02-0.310D-02-0.943D-02-0.177D-01
 Coeff-Com:  0.699D-01 0.180D+00 0.781D+00
 Coeff:      0.959D-04-0.114D-03-0.120D-02-0.310D-02-0.943D-02-0.177D-01
 Coeff:      0.699D-01 0.180D+00 0.781D+00
 Gap=     0.180 Goal=   None    Shift=    0.000
 RMSDP=3.07D-07 MaxDP=1.08D-05 DE=-1.55D-07 OVMax= 3.28D-05

 Cycle  10  Pass 1  IDiag  1:
 RMSU=  2.14D-07    CP:  9.55D-01  1.43D+00  7.98D-01  6.94D-01  8.11D-01
                    CP:  9.85D-01  1.11D+00  7.70D-01  9.67D-01
 E= -912.194143482850     Delta-E=       -0.000000005339 Rises=F Damp=F
 DIIS: error= 1.00D-06 at cycle  10 NSaved=  10.
 NSaved=10 IEnMin=10 EnMin= -912.194143482850     IErMin=10 ErrMin= 1.00D-06
 ErrMax= 1.00D-06  0.00D+00 EMaxC= 1.00D-01 BMatC= 7.02D-10 BMatP= 3.86D-09
 IDIUse=1 WtCom= 1.00D+00 WtEn= 0.00D+00
 Coeff-Com: -0.138D-04 0.409D-04 0.151D-03 0.264D-03-0.295D-03-0.572D-02
 Coeff-Com: -0.259D-01-0.651D-02 0.298D+00 0.740D+00
 Coeff:     -0.138D-04 0.409D-04 0.151D-03 0.264D-03-0.295D-03-0.572D-02
 Coeff:     -0.259D-01-0.651D-02 0.298D+00 0.740D+00
 Gap=     0.180 Goal=   None    Shift=    0.000
 RMSDP=1.15D-07 MaxDP=5.34D-06 DE=-5.34D-09 OVMax= 1.42D-05

 Cycle  11  Pass 1  IDiag  1:
 RMSU=  7.99D-08    CP:  9.55D-01  1.43D+00  7.98D-01  6.94D-01  8.11D-01
                    CP:  9.87D-01  1.11D+00  7.83D-01  1.05D+00  9.26D-01
 E= -912.194143483700     Delta-E=       -0.000000000850 Rises=F Damp=F
 DIIS: error= 3.65D-07 at cycle  11 NSaved=  11.
 NSaved=11 IEnMin=11 EnMin= -912.194143483700     IErMin=11 ErrMin= 3.65D-07
 ErrMax= 3.65D-07  0.00D+00 EMaxC= 1.00D-01 BMatC= 8.66D-11 BMatP= 7.02D-10
 IDIUse=1 WtCom= 1.00D+00 WtEn= 0.00D+00
 Coeff-Com: -0.193D-04 0.328D-04 0.229D-03 0.559D-03 0.121D-02 0.903D-04
 Coeff-Com: -0.201D-01-0.295D-01 0.166D-01 0.299D+00 0.732D+00
 Coeff:     -0.193D-04 0.328D-04 0.229D-03 0.559D-03 0.121D-02 0.903D-04
 Coeff:     -0.201D-01-0.295D-01 0.166D-01 0.299D+00 0.732D+00
 Gap=     0.180 Goal=   None    Shift=    0.000
 RMSDP=4.04D-08 MaxDP=1.53D-06 DE=-8.50D-10 OVMax= 3.95D-06

 Cycle  12  Pass 1  IDiag  1:
 RMSU=  2.43D-08    CP:  9.55D-01  1.43D+00  7.98D-01  6.94D-01  8.11D-01
                    CP:  9.87D-01  1.11D+00  7.84D-01  1.08D+00  1.02D+00
                    CP:  8.94D-01
 E= -912.194143483872     Delta-E=       -0.000000000172 Rises=F Damp=F
 DIIS: error= 7.24D-08 at cycle  12 NSaved=  12.
 NSaved=12 IEnMin=12 EnMin= -912.194143483872     IErMin=12 ErrMin= 7.24D-08
 ErrMax= 7.24D-08  0.00D+00 EMaxC= 1.00D-01 BMatC= 2.93D-12 BMatP= 8.66D-11
 IDIUse=1 WtCom= 1.00D+00 WtEn= 0.00D+00
 Coeff-Com: -0.398D-05 0.597D-05 0.459D-04 0.122D-03 0.300D-03 0.335D-03
 Coeff-Com: -0.295D-02-0.687D-02-0.982D-02 0.339D-01 0.180D+00 0.805D+00
 Coeff:     -0.398D-05 0.597D-05 0.459D-04 0.122D-03 0.300D-03 0.335D-03
 Coeff:     -0.295D-02-0.687D-02-0.982D-02 0.339D-01 0.180D+00 0.805D+00
 Gap=     0.180 Goal=   None    Shift=    0.000
 RMSDP=8.82D-09 MaxDP=2.93D-07 DE=-1.72D-10 OVMax= 1.13D-06

 Error on total polarization charges =  0.01115
 SCF Done:  E(RM062X) =  -912.194143484     A.U. after   12 cycles
            NFock= 12  Conv=0.88D-08     -V/T= 2.0061
 KE= 9.066927727427D+02 PE=-5.070744059680D+03 EE= 1.781495445377D+03
 Leave Link  502 at Tue Feb  1 06:33:31 2022, MaxMem= 11408506880 cpu:             844.3 elap:              74.8
 (Enter /lustre1/prg/gaussian/bin/G16_C01_Linda9.2_SSE4/g16/l801.exe)
 DoSCS=F DFT=T ScalE2(SS,OS)=  1.000000  1.000000
 Range of M.O.s used for correlation:     1   335
 NBasis=   335 NAE=    69 NBE=    69 NFC=     0 NFV=     0
 NROrb=    335 NOA=    69 NOB=    69 NVA=   266 NVB=   266

 **** Warning!!: The largest alpha MO coefficient is  0.11770609D+02

 Leave Link  801 at Tue Feb  1 06:33:32 2022, MaxMem= 11408506880 cpu:               0.4 elap:               0.0
@@@@@@@@@@@@@@@@@@@@@@@@@@@@@@@@@@@@@@@@@@@@@@@@@@@@@@@@@@@
@    WARNING: REMOTE HOST IDENTIFICATION HAS CHANGED!     @
@@@@@@@@@@@@@@@@@@@@@@@@@@@@@@@@@@@@@@@@@@@@@@@@@@@@@@@@@@@
IT IS POSSIBLE THAT SOMEONE IS DOING SOMETHING NASTY!
Someone could be eavesdropping on you right now (man-in-the-middle attack)!
It is also possible that a host key has just been changed.
The fingerprint for the ECDSA key sent by the remote host is
SHA256:KX001MXmKX1SZsVdeUgJ5vP9GhgFy5i+dR3x9qKC5Vs.
Please contact your system administrator.
Add correct host key in /lustre2/home/toliste/.ssh/known_hosts to get rid of this message.
Offending ECDSA key in /lustre2/home/toliste/.ssh/known_hosts:103
Password authentication is disabled to avoid man-in-the-middle attacks.
Keyboard-interactive authentication is disabled to avoid man-in-the-middle attacks.
@@@@@@@@@@@@@@@@@@@@@@@@@@@@@@@@@@@@@@@@@@@@@@@@@@@@@@@@@@@
@    WARNING: REMOTE HOST IDENTIFICATION HAS CHANGED!     @
@@@@@@@@@@@@@@@@@@@@@@@@@@@@@@@@@@@@@@@@@@@@@@@@@@@@@@@@@@@
IT IS POSSIBLE THAT SOMEONE IS DOING SOMETHING NASTY!
Someone could be eavesdropping on you right now (man-in-the-middle attack)!
It is also possible that a host key has just been changed.
The fingerprint for the ECDSA key sent by the remote host is
SHA256:8rjYfDO3JlbDXTefHWc6TrhQ35S4vzq+Jw4FkJeir7c.
Please contact your system administrator.
Add correct host key in /lustre2/home/toliste/.ssh/known_hosts to get rid of this message.
Offending ECDSA key in /lustre2/home/toliste/.ssh/known_hosts:43
Password authentication is disabled to avoid man-in-the-middle attacks.
Keyboard-interactive authentication is disabled to avoid man-in-the-middle attacks.
@@@@@@@@@@@@@@@@@@@@@@@@@@@@@@@@@@@@@@@@@@@@@@@@@@@@@@@@@@@
@    WARNING: REMOTE HOST IDENTIFICATION HAS CHANGED!     @
@@@@@@@@@@@@@@@@@@@@@@@@@@@@@@@@@@@@@@@@@@@@@@@@@@@@@@@@@@@
IT IS POSSIBLE THAT SOMEONE IS DOING SOMETHING NASTY!
Someone could be eavesdropping on you right now (man-in-the-middle attack)!
It is also possible that a host key has just been changed.
The fingerprint for the ECDSA key sent by the remote host is
SHA256:GrKekbUI0EXjIn2+8KWdVGCxz/8JpOOEF1MyBm+WVPs.
Please contact your system administrator.
Add correct host key in /lustre2/home/toliste/.ssh/known_hosts to get rid of this message.
Offending ECDSA key in /lustre2/home/toliste/.ssh/known_hosts:76
Password authentication is disabled to avoid man-in-the-middle attacks.
Keyboard-interactive authentication is disabled to avoid man-in-the-middle attacks.
@@@@@@@@@@@@@@@@@@@@@@@@@@@@@@@@@@@@@@@@@@@@@@@@@@@@@@@@@@@
@    WARNING: REMOTE HOST IDENTIFICATION HAS CHANGED!     @
@@@@@@@@@@@@@@@@@@@@@@@@@@@@@@@@@@@@@@@@@@@@@@@@@@@@@@@@@@@
IT IS POSSIBLE THAT SOMEONE IS DOING SOMETHING NASTY!
Someone could be eavesdropping on you right now (man-in-the-middle attack)!
It is also possible that a host key has just been changed.
The fingerprint for the ECDSA key sent by the remote host is
SHA256:Ki/B3btCxo943N1v5zDKOfUYHONPxVQ2BEdbCqI5VQc.
Please contact your system administrator.
Add correct host key in /lustre2/home/toliste/.ssh/known_hosts to get rid of this message.
Offending ECDSA key in /lustre2/home/toliste/.ssh/known_hosts:75
Password authentication is disabled to avoid man-in-the-middle attacks.
Keyboard-interactive authentication is disabled to avoid man-in-the-middle attacks.
@@@@@@@@@@@@@@@@@@@@@@@@@@@@@@@@@@@@@@@@@@@@@@@@@@@@@@@@@@@
@    WARNING: REMOTE HOST IDENTIFICATION HAS CHANGED!     @
@@@@@@@@@@@@@@@@@@@@@@@@@@@@@@@@@@@@@@@@@@@@@@@@@@@@@@@@@@@
IT IS POSSIBLE THAT SOMEONE IS DOING SOMETHING NASTY!
Someone could be eavesdropping on you right now (man-in-the-middle attack)!
It is also possible that a host key has just been changed.
The fingerprint for the ECDSA key sent by the remote host is
SHA256:800ICgCQYNCAEDeUW1SwBVSf1e3qTb6ovHlMpmKSz/k.
Please contact your system administrator.
Add correct host key in /lustre2/home/toliste/.ssh/known_hosts to get rid of this message.
Offending ECDSA key in /lustre2/home/toliste/.ssh/known_hosts:102
Password authentication is disabled to avoid man-in-the-middle attacks.
Keyboard-interactive authentication is disabled to avoid man-in-the-middle attacks.
@@@@@@@@@@@@@@@@@@@@@@@@@@@@@@@@@@@@@@@@@@@@@@@@@@@@@@@@@@@
@    WARNING: REMOTE HOST IDENTIFICATION HAS CHANGED!     @
@@@@@@@@@@@@@@@@@@@@@@@@@@@@@@@@@@@@@@@@@@@@@@@@@@@@@@@@@@@
IT IS POSSIBLE THAT SOMEONE IS DOING SOMETHING NASTY!
Someone could be eavesdropping on you right now (man-in-the-middle attack)!
It is also possible that a host key has just been changed.
The fingerprint for the ECDSA key sent by the remote host is
SHA256:Ig8LihuAfIQ06SMELJzN8hUGL3IF4hxP55+N5V8AdXA.
Please contact your system administrator.
Add correct host key in /lustre2/home/toliste/.ssh/known_hosts to get rid of this message.
Offending ECDSA key in /lustre2/home/toliste/.ssh/known_hosts:135
Password authentication is disabled to avoid man-in-the-middle attacks.
Keyboard-interactive authentication is disabled to avoid man-in-the-middle attacks.
 (Enter /lustre1/prg/gaussian/bin/G16_C01_Linda9.2_SSE4/g16/linda-exe/l1101.exel)
 Using compressed storage, NAtomX=    31.
 Will process     32 centers per pass.
 Leave Link 1101 at Tue Feb  1 06:33:39 2022, MaxMem= 11408506880 cpu:              55.5 elap:               5.0
 (Enter /lustre1/prg/gaussian/bin/G16_C01_Linda9.2_SSE4/g16/l1102.exe)
 Symmetrizing basis deriv contribution to polar:
 IMax=3 JMax=2 DiffMx= 0.00D+00
 Leave Link 1102 at Tue Feb  1 06:33:39 2022, MaxMem= 11408506880 cpu:               1.3 elap:               0.1
@@@@@@@@@@@@@@@@@@@@@@@@@@@@@@@@@@@@@@@@@@@@@@@@@@@@@@@@@@@
@    WARNING: REMOTE HOST IDENTIFICATION HAS CHANGED!     @
@@@@@@@@@@@@@@@@@@@@@@@@@@@@@@@@@@@@@@@@@@@@@@@@@@@@@@@@@@@
IT IS POSSIBLE THAT SOMEONE IS DOING SOMETHING NASTY!
Someone could be eavesdropping on you right now (man-in-the-middle attack)!
It is also possible that a host key has just been changed.
The fingerprint for the ECDSA key sent by the remote host is
SHA256:Ig8LihuAfIQ06SMELJzN8hUGL3IF4hxP55+N5V8AdXA.
Please contact your system administrator.
Add correct host key in /lustre2/home/toliste/.ssh/known_hosts to get rid of this message.
Offending ECDSA key in /lustre2/home/toliste/.ssh/known_hosts:135
Password authentication is disabled to avoid man-in-the-middle attacks.
Keyboard-interactive authentication is disabled to avoid man-in-the-middle attacks.
@@@@@@@@@@@@@@@@@@@@@@@@@@@@@@@@@@@@@@@@@@@@@@@@@@@@@@@@@@@
@    WARNING: REMOTE HOST IDENTIFICATION HAS CHANGED!     @
@@@@@@@@@@@@@@@@@@@@@@@@@@@@@@@@@@@@@@@@@@@@@@@@@@@@@@@@@@@
IT IS POSSIBLE THAT SOMEONE IS DOING SOMETHING NASTY!
Someone could be eavesdropping on you right now (man-in-the-middle attack)!
It is also possible that a host key has just been changed.
The fingerprint for the ECDSA key sent by the remote host is
SHA256:800ICgCQYNCAEDeUW1SwBVSf1e3qTb6ovHlMpmKSz/k.
Please contact your system administrator.
Add correct host key in /lustre2/home/toliste/.ssh/known_hosts to get rid of this message.
Offending ECDSA key in /lustre2/home/toliste/.ssh/known_hosts:102
Password authentication is disabled to avoid man-in-the-middle attacks.
Keyboard-interactive authentication is disabled to avoid man-in-the-middle attacks.
@@@@@@@@@@@@@@@@@@@@@@@@@@@@@@@@@@@@@@@@@@@@@@@@@@@@@@@@@@@
@    WARNING: REMOTE HOST IDENTIFICATION HAS CHANGED!     @
@@@@@@@@@@@@@@@@@@@@@@@@@@@@@@@@@@@@@@@@@@@@@@@@@@@@@@@@@@@
IT IS POSSIBLE THAT SOMEONE IS DOING SOMETHING NASTY!
Someone could be eavesdropping on you right now (man-in-the-middle attack)!
It is also possible that a host key has just been changed.
The fingerprint for the ECDSA key sent by the remote host is
SHA256:KX001MXmKX1SZsVdeUgJ5vP9GhgFy5i+dR3x9qKC5Vs.
Please contact your system administrator.
Add correct host key in /lustre2/home/toliste/.ssh/known_hosts to get rid of this message.
Offending ECDSA key in /lustre2/home/toliste/.ssh/known_hosts:103
Password authentication is disabled to avoid man-in-the-middle attacks.
Keyboard-interactive authentication is disabled to avoid man-in-the-middle attacks.
@@@@@@@@@@@@@@@@@@@@@@@@@@@@@@@@@@@@@@@@@@@@@@@@@@@@@@@@@@@
@    WARNING: REMOTE HOST IDENTIFICATION HAS CHANGED!     @
@@@@@@@@@@@@@@@@@@@@@@@@@@@@@@@@@@@@@@@@@@@@@@@@@@@@@@@@@@@
IT IS POSSIBLE THAT SOMEONE IS DOING SOMETHING NASTY!
Someone could be eavesdropping on you right now (man-in-the-middle attack)!
It is also possible that a host key has just been changed.
The fingerprint for the ECDSA key sent by the remote host is
SHA256:GrKekbUI0EXjIn2+8KWdVGCxz/8JpOOEF1MyBm+WVPs.
Please contact your system administrator.
Add correct host key in /lustre2/home/toliste/.ssh/known_hosts to get rid of this message.
Offending ECDSA key in /lustre2/home/toliste/.ssh/known_hosts:76
Password authentication is disabled to avoid man-in-the-middle attacks.
Keyboard-interactive authentication is disabled to avoid man-in-the-middle attacks.
@@@@@@@@@@@@@@@@@@@@@@@@@@@@@@@@@@@@@@@@@@@@@@@@@@@@@@@@@@@
@    WARNING: REMOTE HOST IDENTIFICATION HAS CHANGED!     @
@@@@@@@@@@@@@@@@@@@@@@@@@@@@@@@@@@@@@@@@@@@@@@@@@@@@@@@@@@@
IT IS POSSIBLE THAT SOMEONE IS DOING SOMETHING NASTY!
Someone could be eavesdropping on you right now (man-in-the-middle attack)!
It is also possible that a host key has just been changed.
The fingerprint for the ECDSA key sent by the remote host is
SHA256:Ki/B3btCxo943N1v5zDKOfUYHONPxVQ2BEdbCqI5VQc.
Please contact your system administrator.
Add correct host key in /lustre2/home/toliste/.ssh/known_hosts to get rid of this message.
Offending ECDSA key in /lustre2/home/toliste/.ssh/known_hosts:75
Password authentication is disabled to avoid man-in-the-middle attacks.
Keyboard-interactive authentication is disabled to avoid man-in-the-middle attacks.
@@@@@@@@@@@@@@@@@@@@@@@@@@@@@@@@@@@@@@@@@@@@@@@@@@@@@@@@@@@
@    WARNING: REMOTE HOST IDENTIFICATION HAS CHANGED!     @
@@@@@@@@@@@@@@@@@@@@@@@@@@@@@@@@@@@@@@@@@@@@@@@@@@@@@@@@@@@
IT IS POSSIBLE THAT SOMEONE IS DOING SOMETHING NASTY!
Someone could be eavesdropping on you right now (man-in-the-middle attack)!
It is also possible that a host key has just been changed.
The fingerprint for the ECDSA key sent by the remote host is
SHA256:8rjYfDO3JlbDXTefHWc6TrhQ35S4vzq+Jw4FkJeir7c.
Please contact your system administrator.
Add correct host key in /lustre2/home/toliste/.ssh/known_hosts to get rid of this message.
Offending ECDSA key in /lustre2/home/toliste/.ssh/known_hosts:43
Password authentication is disabled to avoid man-in-the-middle attacks.
Keyboard-interactive authentication is disabled to avoid man-in-the-middle attacks.
 (Enter /lustre1/prg/gaussian/bin/G16_C01_Linda9.2_SSE4/g16/linda-exe/l1110.exel)
 Forming Gx(P) for the SCF density, NAtomX=    31.
 Integral derivatives from FoFJK, PRISM(SPDF).
 Do as many integral derivatives as possible in FoFJK.
 G2DrvN: MDV=   11408503551.
 G2DrvN: will do    32 centers at a time, making    1 passes.
 Calling FoFCou, ICntrl=  3107 FMM=F I1Cent=   0 AccDes= 0.00D+00.
 FoFJK:  IHMeth= 1 ICntrl=    3107 DoSepK=F KAlg= 0 I1Cent=           0 FoldK=F
 IRaf=         0 NMat=       1 IRICut=       1 DoRegI=T DoRafI=F ISym2E= 0 IDoP0=0 IntGTp=1.
 FoFCou: FMM=F IPFlag=           0 FMFlag=      100000 FMFlg1=           0
         NFxFlg=           0 DoJE=F BraDBF=F KetDBF=F FulRan=T
         wScrn=  0.000000 ICntrl=      3107 IOpCl=  0 I1Cent=           0 NGrid=           0
[...]
 1419,-0.00010576,-0.00000483,-0.00000199,-0.00000535,0.00012951,0.0000
 3469,-0.00011732,-0.00000102,-0.00000119,-0.00000848,0.00004412,-0.000
 01823,0.00017537,0.00001259,-0.00003272,-0.00000102,0.00016992,-0.0000
 0779,-0.00018330,0.00004117,0.00003083,-0.00003339,0.00003410,-0.00004
 140,-0.00003019,0.00550993,0.00165767,0.00197486,-0.00070150,0.0134854
 8,-0.00786477,-0.00171770,-0.00192001,-0.00120643,0.02260630,0.1514568
 2,-0.19447093,-0.02696074,-0.16522120,0.19775023,0.00024897,-0.0000280
 0,-0.00010246,-0.00009907,0.00012080,-0.00002041,-0.00005746,0.0000344
 4,-0.00009415,-0.00001548,-0.00006885,0.00000422,-0.00015884,0.0001927
 0,0.00011075,-0.00001669,-0.00000780,-0.00000245,0.00010235,-0.0000827
 9,0.00001251,-0.00002852,-0.00015652,0.00012956,0.00010311,-0.00024933
 ,0.00024698,-0.00020607,0.00078242,-0.00102313,0.00007534,-0.00015848,
 0.00001897,0.00006639,-0.00000717,0.00019324,0.00001401,0.00000805,0.0
 0000030,-0.00020908,0.00010976,0.00019122,0.00000439,0.00000512,0.0000
 1972,-0.00046385,-0.00001392,-0.00046438,0.00006859,-0.00009728,-0.000
 01053,0.00007222,0.00001852,0.00044410,-0.00008333,-0.00005457,0.00004
 283,-0.00006883,0.00007197,0.00003707,-0.01219554,0.02063810,-0.016663
 07,-0.04229210,0.00890606,0.03031871,-0.00086306,0.00126146,0.00525321
 ,-0.22843784,0.15498007,-0.01820498,0.00602419,-0.00422113,0.00210732,
 0.60220689,-0.00008778,0.00001175,-0.00011109,0.00010186,0.00012864,-0
 .00014663,-0.00013145,-0.00009086,-0.00006536,0.00001690,0.00006655,-0
 .00003006,-0.00015435,-0.00034701,0.00006358,0.00000408,0.00000490,-0.
 00000743,0.00046778,0.00033524,0.00079589,0.00019271,0.00030431,-0.000
 36131,-0.00078622,0.00029653,-0.00030484,0.00053101,-0.00315607,0.0007
 5614,-0.00016447,0.00012921,0.00008723,-0.00006136,-0.00008181,-0.0001
 6017,-0.00003124,0.00006670,0.00001169,0.00010477,-0.00035440,-0.00016
 983,-0.00000662,0.00000500,0.00000150,0.00062692,0.00029924,0.00064802
 ,-0.00037535,0.00032891,0.00011782,-0.00008400,0.00033162,-0.00081784,
 0.00001980,-0.00000030,0.00002174,0.00001642,0.,0.00002309,0.02221552,
 -0.05324638,0.02843552,0.04612180,0.02916058,-0.05576817,0.00081875,0.
 00358650,0.00282149,0.10389177,-0.21712263,0.05920171,0.01599050,-0.00
 917987,0.00041150,-0.15830927,0.49566319,-0.00009484,0.00001487,0.0001
 8960,-0.00002284,-0.00012949,0.00008149,0.00015768,0.00001272,0.000083
 02,-0.00000821,-0.00000899,0.00001509,0.00019079,0.00015352,-0.0001272
 7,0.00001260,0.00000412,0.00000914,-0.00032208,-0.00007497,-0.00059684
 ,-0.00002874,-0.00012740,0.00010846,0.00045143,-0.00001016,0.00025672,
 -0.00095425,0.00099881,-0.00076827,0.00002806,0.00008086,-0.00010967,-
 0.00004100,0.00003656,-0.00001704,0.00000979,-0.00006759,-0.00001757,0
 .00008548,0.00022780,-0.00005263,0.00000268,-0.00000607,-0.00001169,-0
 .00012440,-0.00008958,-0.00001584,0.00013260,-0.00019287,-0.00000546,0
 .00022799,-0.00025971,0.00028600,0.00004175,0.00004054,-0.00005393,0.0
 0003333,-0.00005348,-0.00005146,-0.01668557,0.02649195,-0.02069261,-0.
 00450284,-0.02664784,0.03523299,0.00558285,0.00270690,0.00109822,0.027
 79794,0.02120807,-0.10642219,-0.01606744,0.01530488,0.00208855,-0.2067
 3571,-0.20617826,0.49224502,0.00025691,-0.00002785,-0.00003319,-0.0000
 0287,-0.00046740,0.00009412,-0.00002543,0.00005373,-0.00012285,-0.0000
 1554,0.00002819,0.00001541,-0.00009437,0.00019590,0.00011445,-0.000012
 34,-0.00000503,0.00000164,-0.00009572,-0.00009348,-0.00037905,-0.00008
 113,-0.00019435,0.00024921,0.00005700,0.00000582,0.00005511,0.00217857
 ,0.00594267,-0.00184993,0.00034301,-0.00040515,-0.00026844,0.00035904,
 0.00009136,0.00048907,0.00005050,0.00000901,-0.00000452,-0.00044822,0.
 00019255,0.00050826,0.00000889,-0.00001260,0.00001014,-0.00102994,-0.0
 0018226,-0.00137788,0.00030430,-0.00012004,0.00017656,0.00006336,-0.00
 056976,0.00199496,-0.00007192,-0.00004187,0.00002162,-0.00006186,0.000
 05335,0.00001740,-0.04353090,0.04447867,-0.00337052,-0.02289157,-0.018
 59347,0.02914463,-0.00018140,-0.00081916,0.00031495,0.04157247,0.00135
 063,-0.02686165,-0.00125168,0.00529935,0.00157267,-0.11654479,0.031704
 26,0.01023112,0.58984782,0.00023504,-0.00001333,0.00024094,0.00055438,
 0.00029419,0.00016940,0.00003443,-0.00000008,-0.00027685,0.00003015,-0
 .00010325,0.00003427,-0.00009583,0.00023508,0.00010063,0.00000735,-0.0
 0000748,0.00000328,0.00006173,-0.00013682,-0.00004254,-0.00008997,-0.0
 0021310,0.00004769,0.00033579,0.00032609,-0.00129197,0.00659219,-0.000
 03546,0.00284983,0.00005823,-0.00036029,-0.00011561,-0.00001489,-0.000
 01014,0.00028102,0.00001847,0.00004909,-0.00000803,-0.00016782,0.00009
 211,0.00009119,0.00000750,0.00001169,0.00001222,-0.00078620,0.00009896
 ,-0.00062213,0.00016355,-0.00017724,-0.00007962,-0.00022953,-0.0001478
 7,0.00144790,-0.00005433,-0.00000694,-0.00004019,-0.00005381,0.0000181
 7,-0.00003718,0.00644901,0.02736756,-0.02602074,-0.01823173,-0.0157852
 2,0.02153241,-0.00081522,-0.00017079,-0.00009873,0.03771780,-0.0345397
 1,0.01072885,0.00506746,0.00065813,0.00237753,-0.01811198,-0.21825137,
 0.15544109,-0.19652546,0.53482189,-0.00019494,0.00001890,0.00009308,-0
 .00027313,-0.00052453,-0.00006109,0.00024014,0.00001255,0.00028730,0.0
 0001778,0.00018943,-0.00001803,0.00018351,-0.00044307,-0.00016423,0.00
 001636,0.00000561,-0.00000240,0.00003857,0.00041495,0.00037106,0.00012
 625,0.00029767,-0.00030158,0.00060522,-0.00062977,-0.00031334,-0.00098
 416,0.00147189,0.00559404,-0.00003785,-0.00011315,0.00034374,-0.000202
 61,-0.00004935,-0.00031258,-0.00001879,0.00009478,0.00001541,0.0001766
 3,-0.00038085,-0.00022074,-0.00000153,-0.00000150,-0.00001371,0.000421
 44,0.00032456,0.00062340,-0.00016447,0.00024402,-0.00003251,-0.0004582
 0,0.00091172,-0.00087757,0.00007076,0.00004169,-0.00003914,0.00006280,
 -0.00005701,-0.00003359,0.03195913,-0.05075166,0.03270285,0.02949557,0
 .02257792,-0.04977540,0.00027166,-0.00008923,-0.00106819,-0.06157779,0
 .03872057,0.01861075,0.00198167,0.00212941,0.00414592,0.05625012,0.115
 76521,-0.21713088,-0.16948592,-0.21071245,0.46497611,0.00014798,-0.000
 01669,-0.00010788,-0.00002264,-0.00006628,-0.00005188,-0.00009555,0.00
 000743,-0.00011134,-0.00000644,0.00000355,-0.00000792,-0.00016680,0.00
 002600,0.00010277,-0.00000955,-0.00000126,-0.00000372,0.00016951,0.000
 00506,0.00011565,0.00000012,-0.00002922,0.00001469,-0.00027087,-0.0000
 1742,0.00016132,0.00010288,0.00097228,-0.00093356,0.00003233,-0.000041
 73,-0.00004143,0.00010387,0.00000564,0.00014882,0.00000247,0.00000784,
 0.00000376,-0.00017229,-0.00000052,0.00014058,0.00000086,-0.00000144,0
 .00001173,-0.00011738,-0.00000728,-0.00023770,-0.00000411,-0.00001622,
 -0.00002079,0.00002524,-0.00010437,0.00025135,-0.00004890,-0.00003664,
 0.00003498,-0.00004231,0.00004714,0.00003219,-0.00085798,0.00106627,0.
 00576905,-0.00025419,-0.00079189,0.00012791,-0.00027785,-0.00024094,-0
 .00042027,0.00293032,0.00101250,0.00264416,0.00014851,-0.00020991,0.00
 010082,0.00571967,-0.00360747,0.00200786,-0.19770407,0.14941972,-0.013
 83111,0.20283086,-0.00002010,0.00000084,0.00003277,0.00003003,-0.00001
 312,0.00000699,0.00002132,0.00001152,-0.00000944,0.00000256,-0.0000010
 9,0.00000061,0.00000943,0.00002412,-0.00001402,0.00000331,0.00000017,0
 .00000102,-0.00000756,-0.00002533,-0.00006909,-0.00001926,-0.00003030,
 -0.00000200,0.00005207,-0.00008573,-0.00001530,-0.00009099,0.00029746,
 0.00007644,0.00000731,-0.00001606,-0.00004314,0.00001512,0.00001485,0.
 00000791,0.00000074,-0.00000333,-0.00000277,-0.00000884,0.00001471,0.0
 0000376,0.00000087,-0.00000139,-0.00000311,0.00000554,-0.00003331,-0.0
 0003606,0.00002132,-0.00001076,0.00001220,0.00005315,-0.00005158,0.000
 05717,0.00000888,0.00000790,-0.00001043,0.00000663,-0.00000992,-0.0000
 0865,0.00096924,0.00384057,0.00271359,-0.00088937,-0.00025499,0.000103
 56,-0.00022220,-0.00039146,-0.00047209,0.00072559,0.00063145,0.0056544
 8,0.00076633,-0.00061373,-0.00001931,0.01596019,-0.00919922,-0.0002250
 3,0.14955437,-0.19538325,0.02673246,-0.16226052,0.19924168,-0.00003859
 ,0.00000439,0.00005886,0.00009328,0.00010466,0.00003651,0.00003668,0.0
 0000358,-0.00000628,0.00000860,-0.00002281,0.00000608,0.00003647,0.000
 03457,-0.00002186,0.00000488,-0.00000024,0.00000171,-0.00002693,-0.000
 06070,-0.00008332,-0.00000911,-0.00001827,0.00000094,0.00015627,0.0000
 1746,-0.00016408,0.00060872,-0.00051829,0.00038565,-0.00000725,0.00000
 275,-0.00004030,-0.00000112,0.00000410,-0.00000846,-0.00000071,-0.0000
 0287,-0.00000362,0.00001184,0.00001232,-0.00002459,0.00000078,0.000000
 86,-0.00000478,0.00002917,-0.00004883,0.00000079,0.00001212,-0.0000018
 1,0.00001235,0.00000330,-0.00003051,0.00003605,0.00001428,0.00001384,-
 0.00001636,0.00001200,-0.00001734,-0.00001477,0.00507275,0.00245418,0.
 00102073,0.00013598,0.00009534,-0.00118056,-0.00040222,-0.00046706,-0.
 00035216,0.00306493,0.00548564,0.00002213,-0.00083406,0.00072568,-0.00
 004325,-0.01609435,0.01552544,0.00234677,-0.01437901,0.02652211,-0.052
 20766,0.01175319,-0.03194798,0.04695920,-0.00038685,0.00005820,-0.0000
 8747,-0.00239488,-0.00088822,-0.00052849,0.00067947,0.00000928,0.00150
 637,-0.00007423,0.00025121,-0.00007959,0.00087424,-0.00070938,-0.00085
 020,0.00000436,-0.00000632,-0.00000308,-0.00061096,0.00055450,-0.00000
 154,0.00022301,0.00050542,-0.00045207,0.00261572,-0.00040181,0.0039425
 7,-0.03133606,0.01528816,0.00842156,-0.00034352,-0.00042458,0.00169230
 ,-0.00124672,0.00000118,-0.00132075,-0.00000711,-0.00003986,0.00001991
 ,0.00129270,0.00023503,-0.00096692,-0.00000399,-0.00003415,-0.00000678
 ,0.00063726,0.00071744,0.00172111,0.00003962,-0.00034619,0.00011753,-0
 .00079530,0.00248949,-0.00513850,0.00012029,0.00004037,-0.00002314,0.0
 0011086,-0.00006310,-0.00001572,-0.20390318,0.09854778,0.01715016,0.03
 946038,0.03798389,-0.05570841,0.00257164,0.00013231,0.00278192,-0.0626
 7925,0.02512403,0.01893823,-0.00120394,0.00030933,-0.00012752,0.024345
 47,-0.06583925,0.04744946,-0.25621620,0.04368522,0.10893929,-0.0113509
 6,-0.00194297,0.01412911,0.55073840,0.00015503,-0.00004434,-0.00043695
 ,-0.00035042,-0.00042675,0.00000582,-0.00037467,0.00002655,-0.00014652
 ,-0.00006113,0.00000846,0.00000024,-0.00024650,0.00018309,0.00029915,-
 0.00004010,-0.00001665,-0.00000982,0.00010907,0.00011360,0.00026437,-0
 .00004457,-0.00024611,0.00025623,-0.00222234,0.00040988,0.00048298,0.0
 0291166,0.00449185,-0.00501618,0.00047129,-0.00003568,-0.00050295,0.00
 078316,0.00019647,0.00059068,0.00004203,0.00004236,0.00003167,-0.00066
 578,-0.00020941,0.00081388,-0.00000049,-0.00000472,0.00001699,-0.00057
 787,-0.00069139,-0.00190946,0.00062479,0.00002479,-0.00091081,-0.00043
 800,-0.00127823,0.00239864,-0.00006764,-0.00008042,0.00011551,-0.00004
 854,0.00009420,0.00010387,0.14435903,-0.20400500,0.02169434,0.00129213
 ,-0.03506727,0.03894873,0.00076616,0.00051026,0.00511801,0.02622157,-0
 .01542502,-0.01213200,0.00029215,-0.00024544,-0.00073693,-0.02812221,0
 .02859270,0.00232367,-0.00545994,-0.10754997,0.04217265,0.01756119,0.0
 0382333,-0.01384017,-0.14450412,0.52431538,-0.00062509,0.00007442,0.00
 058163,0.00042998,0.00095933,0.00058903,0.00050898,-0.00006477,0.00048
 593,0.00003621,-0.00015089,0.00008271,0.00092257,0.00004481,-0.0005491
 0,0.00003043,0.00001510,0.00002560,-0.00101366,-0.00026313,-0.00092618
 ,0.00008859,0.00011995,0.00014381,0.00251638,0.00003465,-0.00184969,0.
 01311513,-0.01359094,0.00861842,-0.00041045,0.00052252,0.00096287,-0.0
 0089110,0.00005337,-0.00119312,0.00004240,-0.00022000,0.00001283,0.001
 62573,0.00046460,-0.00079832,-0.00002296,-0.00001170,-0.00002615,0.000
 57667,-0.00123728,-0.00067881,0.00077760,-0.00097642,-0.00170721,-0.00
 037929,-0.00017170,-0.00271020,0.00019779,0.00016433,-0.00016796,0.000
 18798,-0.00021538,-0.00015616,-0.01718351,0.05402326,-0.10616026,-0.02
 528219,0.01074775,0.01828917,0.00221315,0.00547820,-0.00037007,0.01926
 230,-0.01206199,-0.01032780,-0.00009586,-0.00081966,-0.00024263,0.0125
 7481,0.03076017,-0.03084458,0.15575596,0.00580626,-0.18997922,-0.00417
 996,0.00144152,0.00545760,-0.18653534,-0.23791634,0.50269688,-0.000187
 17,0.00001388,-0.00012198,0.00014133,0.00014774,0.00002747,-0.00011305
 ,-0.00001629,-0.00009536,0.00000126,-0.00002609,-0.00000238,-0.0000718
 4,0.00002097,0.00006996,-0.00000105,0.00000290,0.00000016,0.00008031,-
 0.00002606,0.00005370,0.00001623,0.00000702,0.00001086,-0.00037512,0.0
 0000488,0.00001456,0.00026654,-0.00038278,-0.00268965,-0.00000283,-0.0
 0002211,0.00007883,0.00003604,0.00001803,-0.00016673,-0.00000903,0.000
 01092,0.00000098,0.00004016,-0.00005898,-0.00004474,0.00000256,0.00000
 052,-0.00002008,0.00044145,0.00000881,0.00044362,0.00001468,-0.0000485
 5,-0.00010328,-0.00012002,-0.00003877,-0.00023395,0.00004491,0.0000158
 5,0.00001450,0.00004385,-0.00002803,0.00001662,0.00404108,0.01521051,-
 0.01400032,-0.00147424,0.00477743,0.00173345,0.00024299,0.00086743,-0.
 00072469,-0.00115712,0.00010655,0.00006843,-0.00014349,-0.00039912,-0.
 00038726,-0.00167684,0.00248033,0.00502604,0.00289506,-0.01750313,0.01
 684542,-0.00020538,-0.00129454,-0.00200811,-0.05434690,-0.01404017,0.0
 2392199,0.05162348,0.00025577,-0.00001554,-0.00002721,0.00018031,0.000
 09652,-0.00005298,-0.00016898,-0.00002865,-0.00024789,0.00000135,-0.00
 001955,-0.00000646,-0.00025031,0.00001335,0.00016087,-0.00000545,0.000
 00061,-0.00000446,0.00022099,-0.00003105,0.00022376,-0.00001699,-0.000
 01433,-0.00002467,-0.00053312,0.00016205,-0.00013993,-0.00137773,-0.00
 100279,-0.00043549,-0.00047911,0.00019265,0.00002265,-0.00018112,-0.00
 006735,-0.00006074,-0.00004274,-0.00004130,-0.00000643,0.00005925,0.00
 010211,-0.00021096,-0.00000610,0.00000844,0.00002884,0.00048886,0.0001
 5255,0.00035959,-0.00034021,-0.00054651,-0.00041968,0.00062114,-0.0001
 3911,-0.00088306,-0.00008487,-0.00004691,0.00003260,-0.00008420,0.0000
 7075,0.00002753,-0.00434996,-0.00939367,0.01519231,0.00527884,0.000523
 49,0.00147896,-0.00012754,-0.00046261,0.00086302,0.00011570,-0.0001666
 9,-0.00080808,-0.00038602,-0.00039266,-0.00034857,0.00224263,0.0035766
 1,0.00191869,0.00200694,0.00439176,-0.00175429,-0.00153855,-0.00108523
 ,-0.00170192,-0.01268439,-0.19733410,0.15134179,0.01110387,0.20144749,
 0.00009894,-0.00001254,-0.00010823,0.00009242,0.00004434,-0.00005308,-
 0.00015727,-0.00000220,-0.00016308,-0.00000337,-0.00001180,-0.00000738
 ,-0.00019412,0.00002121,0.00014655,-0.00000827,-0.00000011,-0.00000394
 ,0.00018584,-0.00002611,0.00020877,0.00000704,-0.00000850,0.00001228,-
 0.00065897,0.00013944,0.00001478,-0.00016372,-0.00195796,-0.00166545,-
 0.00021808,0.00031702,-0.00012246,0.00017066,0.00001521,-0.00000144,-0
 .00001093,0.00000276,0.00000998,-0.00000828,-0.00013568,-0.00000029,-0
 .00000848,0.00000231,0.00001062,0.00013390,-0.00073701,-0.00069126,0.0
 0008002,-0.00035543,-0.00040854,0.00043724,-0.00035577,-0.00011860,-0.
 00003922,-0.00003064,0.00003924,-0.00003950,0.00004152,0.00003293,0.00
 140362,0.00079103,0.00154452,0.00120171,0.00206005,0.00362711,0.000214
 00,0.00009308,0.00011741,0.00001536,-0.00081746,-0.00010008,-0.0003701
 8,-0.00033901,-0.00048636,0.00535736,0.00153583,0.00196552,-0.00054711
 ,0.01362311,-0.00768319,-0.00173506,-0.00194512,-0.00116461,0.02339986
 ,0.15178449,-0.18994924,-0.02854399,-0.16433948,0.19554421,0.00002719,
 -0.00000432,-0.00007768,0.00001189,0.00003496,0.00000380,-0.00006930,-
 0.00000123,-0.00003815,-0.00000091,-0.00000626,-0.00000045,-0.00005835
 ,-0.00000227,0.00005733,-0.00000632,-0.00000020,-0.00000226,0.00005893
 ,-0.00003478,0.00009113,0.00002084,0.00002773,0.00002364,-0.00015766,-
 0.00000901,-0.00003868,-0.00009558,-0.00033768,-0.00046297,-0.00000833
 ,0.00005846,0.00000706,0.00002595,-0.00000395,0.00001248,-0.00000162,-
 0.00000980,0.00000131,-0.00002856,0.00000511,0.00002622,-0.00000041,0.
 00000029,0.00000287,0.00002625,-0.00002158,-0.00000794,-0.00001650,-0.
 00000169,-0.00001216,0.00001457,-0.00001887,-0.00005272,-0.00001426,-0
 .00001452,0.00002157,-0.00001140,0.00001828,0.00001978,0.00007023,-0.0
 0001729,-0.00066391,-0.00003811,0.00548001,0.00080759,-0.00069481,-0.0
 0019859,0.00064893,-0.01126578,-0.00251067,0.01438795,-0.00022386,-0.0
 0157867,-0.00161443,-0.23563422,0.00433365,0.14611846,0.00232304,0.002
 24188,-0.00047183,-0.00060735,-0.00145765,-0.00138289,0.00318666,0.001
 67521,0.00183476,-0.00004787,0.00008174,-0.00009143,0.24321564,-0.0000
 1972,0.00000250,-0.00002977,0.00002442,0.00005176,-0.00002758,-0.00004
 471,-0.00000926,-0.00003402,0.00000091,-0.00000805,-0.00000359,-0.0000
 4580,0.00000375,0.00003391,-0.00000042,0.00000027,-0.00000141,0.000062
 53,-0.00000731,0.00010099,-0.00000374,-0.00000395,-0.00002232,-0.00021
 846,0.00000146,-0.00000631,-0.00033868,-0.00027463,-0.00045449,-0.0000
 3334,0.00005029,0.00001559,-0.00001780,-0.00000634,-0.00004886,-0.0000
 0406,-0.00000760,-0.00000051,0.00003896,0.00000208,-0.00003228,-0.0000
 0115,0.00000033,-0.00000059,0.00008166,-0.00001156,0.00008314,-0.00002
 256,-0.00000102,-0.00001008,0.00005329,0.00000552,-0.00020729,0.000003
 66,-0.00000057,0.00000557,0.00000300,0.00000090,0.00000577,0.00026354,
 -0.00128612,0.00034237,0.00494088,-0.00010909,0.00330529,0.00081537,0.
 00005816,-0.00072676,0.01735005,0.00455689,-0.01341339,-0.00195974,-0.
 00068318,-0.00172081,0.00435702,-0.05185824,0.00710640,-0.01744899,0.0
 0452758,0.01338088,-0.00114627,-0.00069884,-0.00232811,0.00195148,-0.0
 0017241,0.00564817,-0.00091302,0.00004968,0.00060342,-0.00772830,0.045
 82698,-0.00007755,0.00000765,-0.00001461,0.00001349,0.00006882,-0.0000
 0612,-0.00001345,-0.00000351,0.00001655,0.00000211,-0.00001212,-0.0000
 0083,0.00001661,0.00000644,-0.00000401,0.00000134,0.00000026,-0.000000
 26,0.00000289,-0.00003105,0.00004765,-0.00000312,0.00000320,-0.0000131
 0,-0.00009951,-0.00002253,-0.00001093,-0.00045960,-0.00044653,-0.00034
 881,0.00000149,0.00005142,0.00001078,-0.00000871,0.00000187,-0.0000733
 8,-0.00000066,-0.00000885,-0.00000103,0.00006213,-0.00000423,-0.000032
 78,-0.00000058,0.00000030,-0.00000625,0.00007921,-0.00004894,0.0000735
 3,0.00001557,0.00002987,0.00002650,0.00000887,-0.00000790,-0.00017779,
 0.00002154,0.00001017,-0.00000222,0.00001963,-0.00001489,-0.00000118,-
 0.00066570,-0.00003509,-0.00026541,0.00100027,0.00316992,0.00389863,-0
 .00025726,0.00003397,0.00009359,-0.00397539,0.00165678,0.00592552,-0.0
 0126544,-0.00195230,-0.00140931,0.14610262,0.00713741,-0.15908866,0.01
 791278,-0.00196370,-0.00752861,-0.00173822,-0.00202097,-0.00100872,0.0
 0163612,0.00613619,0.00069021,0.00081591,-0.00017831,-0.00054672,-0.15
 914739,-0.01156333,0.15975777\\-0.00000040,0.00000165,-0.00000050,-0.0
 0000002,0.00000144,-0.00000054,0.00000007,0.00000175,-0.00000073,-0.00
 000002,0.00000241,-0.00000094,0.00000035,0.00000118,-0.00000065,0.0000
 0048,0.00000135,-0.00000077,0.00000037,0.00000048,-0.00000034,0.000000
 51,-0.00000010,-0.00000021,0.00000010,0.00000061,-0.00000031,-0.000000
 03,0.00000006,-0.00000004,-0.00000051,0.00000114,-0.00000018,-0.000000
 72,0.00000114,-0.00000006,-0.00000096,0.00000174,-0.00000023,-0.000000
 78,0.00000036,0.00000017,-0.00000097,0.00000028,0.00000032,-0.00000048
 ,-0.00000013,0.00000033,-0.00000039,-0.00000078,0.00000048,-0.00000025
 ,0.00000031,0.00000006,-0.00000098,0.00000235,-0.00000044,0.00000019,0
 .00000222,-0.00000093,0.00000020,-0.00000082,0.00000021,0.00000092,-0.
 00000117,0.,0.00000134,-0.00000077,-0.00000036,0.00000110,-0.00000195,
 0.00000023,0.00000167,-0.00000220,0.00000007,0.00000055,-0.00000241,0.
 00000070,-0.00000018,-0.00000212,0.00000094,-0.00000059,-0.00000251,0.
 00000129,-0.00000036,-0.00000133,0.00000070,-0.00000092,-0.00000108,0.
 00000086,0.00000070,-0.00000307,0.00000088\\\@
 The archive entry for this job was punched.


 ALL THINGS ARE POSSIBLE EXCEPT SKIING THROUGH A REVOLVING DOOR.
 Job cpu time:       0 days  0 hours  0 minutes 25.3 seconds.
 Elapsed time:       0 days  0 hours 10 minutes 13.0 seconds.
 File lengths (MBytes):  RWF=    457 Int=      0 D2E=      0 Chk=     26 Scr=      1
 Normal termination of Gaussian 16 at Tue Feb  1 06:57:52 2022.
