 Entering Gaussian System, Link 0=/lustre1/prg/gaussian/bin/G16_C01_Linda9.2_SSE4/g16/g16
 Initial command:
 /lustre1/prg/gaussian/bin/G16_C01_Linda9.2_SSE4/g16/l1.exe "/lustre1/prg/webmo/data/webmo20/toliste/4415/scratch/Gau-42225.inp" -scrdir="/lustre1/prg/webmo/data/webmo20/toliste/4415/scratch/"
 Default is to use a total of  12 processors:
                               12 via shared-memory
                                1 via Linda
 Entering Link 1 = /lustre1/prg/gaussian/bin/G16_C01_Linda9.2_SSE4/g16/l1.exe PID=     42226.
  
 Copyright (c) 1988-2019, Gaussian, Inc.  All Rights Reserved.
  
 This is part of the Gaussian(R) 16 program.  It is based on
 the Gaussian(R) 09 system (copyright 2009, Gaussian, Inc.),
 the Gaussian(R) 03 system (copyright 2003, Gaussian, Inc.),
 the Gaussian(R) 98 system (copyright 1998, Gaussian, Inc.),
 the Gaussian(R) 94 system (copyright 1995, Gaussian, Inc.),
 the Gaussian 92(TM) system (copyright 1992, Gaussian, Inc.),
 the Gaussian 90(TM) system (copyright 1990, Gaussian, Inc.),
 the Gaussian 88(TM) system (copyright 1988, Gaussian, Inc.),
 the Gaussian 86(TM) system (copyright 1986, Carnegie Mellon
 University), and the Gaussian 82(TM) system (copyright 1983,
 Carnegie Mellon University). Gaussian is a federally registered
 trademark of Gaussian, Inc.
  
 This software contains proprietary and confidential information,
 including trade secrets, belonging to Gaussian, Inc.
  
 This software is provided under written license and may be
 used, copied, transmitted, or stored only in accord with that
 written license.
  
 The following legend is applicable only to US Government
 contracts under FAR:
  
                    RESTRICTED RIGHTS LEGEND
  
 Use, reproduction and disclosure by the US Government is
 subject to restrictions as set forth in subparagraphs (a)
 and (c) of the Commercial Computer Software - Restricted
 Rights clause in FAR 52.227-19.
  
 Gaussian, Inc.
 340 Quinnipiac St., Bldg. 40, Wallingford CT 06492
  
  
 ---------------------------------------------------------------
 Warning -- This program may not be used in any manner that
 competes with the business of Gaussian, Inc. or will provide
 assistance to any competitor of Gaussian, Inc.  The licensee
 of this program is prohibited from giving any competitor of
 Gaussian, Inc. access to this program.  By using this program,
 the user acknowledges that Gaussian, Inc. is engaged in the
 business of creating and licensing software in the field of
 computational chemistry and represents and warrants to the
 licensee that it is not a competitor of Gaussian, Inc. and that
 it will not use this program in any manner prohibited above.
 ---------------------------------------------------------------
  

 Cite this work as:
 Gaussian 16, Revision C.01,
 M. J. Frisch, G. W. Trucks, H. B. Schlegel, G. E. Scuseria, 
 M. A. Robb, J. R. Cheeseman, G. Scalmani, V. Barone, 
 G. A. Petersson, H. Nakatsuji, X. Li, M. Caricato, A. V. Marenich, 
 J. Bloino, B. G. Janesko, R. Gomperts, B. Mennucci, H. P. Hratchian, 
 J. V. Ortiz, A. F. Izmaylov, J. L. Sonnenberg, D. Williams-Young, 
 F. Ding, F. Lipparini, F. Egidi, J. Goings, B. Peng, A. Petrone, 
 T. Henderson, D. Ranasinghe, V. G. Zakrzewski, J. Gao, N. Rega, 
 G. Zheng, W. Liang, M. Hada, M. Ehara, K. Toyota, R. Fukuda, 
 J. Hasegawa, M. Ishida, T. Nakajima, Y. Honda, O. Kitao, H. Nakai, 
 T. Vreven, K. Throssell, J. A. Montgomery, Jr., J. E. Peralta, 
 F. Ogliaro, M. J. Bearpark, J. J. Heyd, E. N. Brothers, K. N. Kudin, 
 V. N. Staroverov, T. A. Keith, R. Kobayashi, J. Normand, 
 K. Raghavachari, A. P. Rendell, J. C. Burant, S. S. Iyengar, 
 J. Tomasi, M. Cossi, J. M. Millam, M. Klene, C. Adamo, R. Cammi, 
 J. W. Ochterski, R. L. Martin, K. Morokuma, O. Farkas, 
 J. B. Foresman, and D. J. Fox, Gaussian, Inc., Wallingford CT, 2019.
 
 ******************************************
 Gaussian 16:  ES64L-G16RevC.01  3-Jul-2019
                 1-Feb-2022 
 ******************************************
 %LindaWorkers=fizika36,fizika38,fizika40,fizika42,fizika44,fizika45,fizika47,fiz
 ika48
 %chk=bodipy.chk
 SetLPE:  input flags=" -opt "Tsnet.Node.lindarsharg: ssh" "
 SetLPE:    new flags=" -opt "Tsnet.Node.lindarsharg: ssh" -opt 'Tsnet.Node.lindarsharg: ssh'  -nodelist 'fizika36.fizika.bullx fizika38.fizika.bullx fizika40.fizika.bullx fizika42.fizika.bullx fizika44.fizika.bullx fizika45.fizika.bullx fizika47.fizika.bullx fizika48.fizika.bullx' -env GAUSS_MDEF=11408506880 -env GAUSS_EXEDIR="/lustre1/prg/gaussian/bin/G16_C01_Linda9.2_SSE4/g16/bsd:/lustre1/prg/gaussian/bin/G16_C01_Linda9.2_SSE4/g16/private:/lustre1/prg/gaussian/bin/G16_C01_Linda9.2_SSE4/g16""
 Will use up to    8 processors via Linda.
 ----------------------------------------------------------------------
 #p m062x cc-pvdz scrf=(cpcm,solvent=Acetone) opt=(tight,calcfc) freq n
 osymm int=ultrafine fchk
 ----------------------------------------------------------------------
 1/7=10,10=4,18=20,19=15,26=6,38=1/1,3;
 2/9=110,12=2,15=1,17=6,18=5,40=1/2;
 3/5=16,11=2,25=1,30=1,70=2101,71=2,72=19,74=-55,75=-5,140=1/1,2,3;
 4//1;
 5/5=2,38=5,53=19/2;
 8/6=4,10=90,11=11/1;
 11/6=1,8=1,9=11,15=111,16=1,31=1/1,2,10;
 10/6=1,13=1,31=1/2;
 6/7=2,8=2,9=2,10=2,28=1/1;
 7/10=1,25=1,30=1/1,2,3,16;
 1/7=10,10=4,18=20,19=15,26=6/3(2);
 2/9=110,15=1/2;
 99//99;
 2/9=110,15=1/2;
 3/5=16,11=2,25=1,30=1,70=2105,71=1,72=19,74=-55,75=-5/1,2,3;
 4/5=5,16=3,69=1/1;
 5/5=2,38=5,53=19/2;
 7/30=1/1,2,3,16;
 1/7=10,18=20,19=15,26=6/3(-5);
 2/9=110,15=1/2;
 6/7=2,8=2,9=2,10=2,19=2,28=1/1;
 99/9=1/99;
 Leave Link    1 at Tue Feb  1 12:10:29 2022, MaxMem=           0 cpu:               1.3 elap:               0.1
 (Enter /lustre1/prg/gaussian/bin/G16_C01_Linda9.2_SSE4/g16/l101.exe)
 -----------------------------------
 BDP-phenyl, optimized S0 in toluene
 -----------------------------------
 Symbolic Z-matrix:
 Charge =  0 Multiplicity = 1
 B                    -0.00469  -0.10715   0.00523 
 N                     0.00355  -0.0348    1.56053 
 C                     1.09142   0.03399   2.3329 
 H                     2.08367   0.04716   1.88742 
 C                     0.72032   0.0914    3.69253 
 H                     1.40229   0.16063   4.53392 
 C                    -0.66717   0.06113   3.72674 
 H                    -1.31044   0.11634   4.60031 
 C                    -1.11444  -0.02512   2.38272 
 C                    -2.41075  -0.01349   1.84304 
 N                    -1.49909   0.04475  -0.4088 
 C                    -1.95685   0.07014  -1.66364 
 H                    -1.26471   0.08307  -2.50272 
 C                    -3.36721   0.06095  -1.66801 
 H                    -3.9994    0.07658  -2.55003 
 C                    -3.76782   0.01911  -0.33944 
 H                    -4.78289  -0.01718   0.04535 
 C                    -2.589     0.01886   0.45061 
 F                     0.75672   0.92638  -0.52704 
 F                     0.4778   -1.34134  -0.4211 
 C                    -3.58379  -0.01873   2.7443 
 C                    -3.70423  -1.00041   3.73869 
 H                    -2.93739  -1.77114   3.82768 
 C                    -4.81073  -1.00786   4.58442 
 H                    -4.90286  -1.78306   5.34553 
 C                    -5.79759  -0.03012   4.45627 
 C                    -5.67894   0.95398   3.47453 
 H                    -6.44292   1.72571   3.37709 
 C                    -4.58181   0.95827   2.61672 
 H                    -4.47817   1.73648   1.85944 
 H                    -6.6603   -0.03455   5.12325 
 
 ITRead=  0  0  0  0  0  0  0  0  0  0  0  0  0  0  0  0  0  0  0  0
 ITRead=  0  0  0  0  0  0  0  0  0  0  0
 MicOpt= -1 -1 -1 -1 -1 -1 -1 -1 -1 -1 -1 -1 -1 -1 -1 -1 -1 -1 -1 -1
 MicOpt= -1 -1 -1 -1 -1 -1 -1 -1 -1 -1 -1
 NAtoms=     31 NQM=       31 NQMF=       0 NMMI=      0 NMMIF=      0
                NMic=       0 NMicF=      0.
                    Isotopes and Nuclear Properties:
 (Nuclear quadrupole moments (NQMom) in fm**2, nuclear magnetic moments (NMagM)
  in nuclear magnetons)

  Atom         1           2           3           4           5           6           7           8           9          10
 IAtWgt=          11          14          12           1          12           1          12           1          12          12
 AtmWgt=  11.0093053  14.0030740  12.0000000   1.0078250  12.0000000   1.0078250  12.0000000   1.0078250  12.0000000  12.0000000
 NucSpn=           3           2           0           1           0           1           0           1           0           0
 AtZEff=  -0.0000000  -0.0000000  -0.0000000  -0.0000000  -0.0000000  -0.0000000  -0.0000000  -0.0000000  -0.0000000  -0.0000000
 NQMom=    4.0590000   2.0440000   0.0000000   0.0000000   0.0000000   0.0000000   0.0000000   0.0000000   0.0000000   0.0000000
 NMagM=    2.6886370   0.4037610   0.0000000   2.7928460   0.0000000   2.7928460   0.0000000   2.7928460   0.0000000   0.0000000
 AtZNuc=   5.0000000   7.0000000   6.0000000   1.0000000   6.0000000   1.0000000   6.0000000   1.0000000   6.0000000   6.0000000

  Atom        11          12          13          14          15          16          17          18          19          20
 IAtWgt=          14          12           1          12           1          12           1          12          19          19
 AtmWgt=  14.0030740  12.0000000   1.0078250  12.0000000   1.0078250  12.0000000   1.0078250  12.0000000  18.9984033  18.9984033
 NucSpn=           2           0           1           0           1           0           1           0           1           1
 AtZEff=  -0.0000000  -0.0000000  -0.0000000  -0.0000000  -0.0000000  -0.0000000  -0.0000000  -0.0000000  -0.0000000  -0.0000000
 NQMom=    2.0440000   0.0000000   0.0000000   0.0000000   0.0000000   0.0000000   0.0000000   0.0000000   0.0000000   0.0000000
 NMagM=    0.4037610   0.0000000   2.7928460   0.0000000   2.7928460   0.0000000   2.7928460   0.0000000   2.6288670   2.6288670
 AtZNuc=   7.0000000   6.0000000   1.0000000   6.0000000   1.0000000   6.0000000   1.0000000   6.0000000   9.0000000   9.0000000

  Atom        21          22          23          24          25          26          27          28          29          30
 IAtWgt=          12          12           1          12           1          12          12           1          12           1
 AtmWgt=  12.0000000  12.0000000   1.0078250  12.0000000   1.0078250  12.0000000  12.0000000   1.0078250  12.0000000   1.0078250
 NucSpn=           0           0           1           0           1           0           0           1           0           1
 AtZEff=  -0.0000000  -0.0000000  -0.0000000  -0.0000000  -0.0000000  -0.0000000  -0.0000000  -0.0000000  -0.0000000  -0.0000000
 NQMom=    0.0000000   0.0000000   0.0000000   0.0000000   0.0000000   0.0000000   0.0000000   0.0000000   0.0000000   0.0000000
 NMagM=    0.0000000   0.0000000   2.7928460   0.0000000   2.7928460   0.0000000   0.0000000   2.7928460   0.0000000   2.7928460
 AtZNuc=   6.0000000   6.0000000   1.0000000   6.0000000   1.0000000   6.0000000   6.0000000   1.0000000   6.0000000   1.0000000

  Atom        31
 IAtWgt=           1
 AtmWgt=   1.0078250
 NucSpn=           1
 AtZEff=  -0.0000000
 NQMom=    0.0000000
 NMagM=    2.7928460
 AtZNuc=   1.0000000
 Leave Link  101 at Tue Feb  1 12:10:30 2022, MaxMem= 11408506880 cpu:               7.5 elap:               0.6
 (Enter /lustre1/prg/gaussian/bin/G16_C01_Linda9.2_SSE4/g16/l103.exe)

 GradGradGradGradGradGradGradGradGradGradGradGradGradGradGradGradGradGrad
 Berny optimization.
 Initialization pass.
                           ----------------------------
                           !    Initial Parameters    !
                           ! (Angstroms and Degrees)  !
 --------------------------                            --------------------------
 ! Name  Definition              Value          Derivative Info.                !
 --------------------------------------------------------------------------------
 ! R1    R(1,2)                  1.557          calculate D2E/DX2 analytically  !
 ! R2    R(1,11)                 1.5581         calculate D2E/DX2 analytically  !
 ! R3    R(1,19)                 1.3897         calculate D2E/DX2 analytically  !
 ! R4    R(1,20)                 1.392          calculate D2E/DX2 analytically  !
 ! R5    R(2,3)                  1.3359         calculate D2E/DX2 analytically  !
 ! R6    R(2,9)                  1.3878         calculate D2E/DX2 analytically  !
 ! R7    R(3,4)                  1.0877         calculate D2E/DX2 analytically  !
 ! R8    R(3,5)                  1.4105         calculate D2E/DX2 analytically  !
 ! R9    R(5,6)                  1.0853         calculate D2E/DX2 analytically  !
 ! R10   R(5,7)                  1.3882         calculate D2E/DX2 analytically  !
 ! R11   R(7,8)                  1.0863         calculate D2E/DX2 analytically  !
 ! R12   R(7,9)                  1.4191         calculate D2E/DX2 analytically  !
 ! R13   R(9,10)                 1.4042         calculate D2E/DX2 analytically  !
 ! R14   R(10,18)                1.4042         calculate D2E/DX2 analytically  !
 ! R15   R(10,21)                1.4793         calculate D2E/DX2 analytically  !
 ! R16   R(11,12)                1.336          calculate D2E/DX2 analytically  !
 ! R17   R(11,18)                1.3882         calculate D2E/DX2 analytically  !
 ! R18   R(12,13)                1.0878         calculate D2E/DX2 analytically  !
 ! R19   R(12,14)                1.4104         calculate D2E/DX2 analytically  !
 ! R20   R(14,15)                1.0853         calculate D2E/DX2 analytically  !
 ! R21   R(14,16)                1.3883         calculate D2E/DX2 analytically  !
 ! R22   R(16,17)                1.0862         calculate D2E/DX2 analytically  !
 ! R23   R(16,18)                1.4191         calculate D2E/DX2 analytically  !
 ! R24   R(21,22)                1.4025         calculate D2E/DX2 analytically  !
 ! R25   R(21,29)                1.4024         calculate D2E/DX2 analytically  !
 ! R26   R(22,23)                1.0909         calculate D2E/DX2 analytically  !
 ! R27   R(22,24)                1.3927         calculate D2E/DX2 analytically  !
 ! R28   R(24,25)                1.0903         calculate D2E/DX2 analytically  !
 ! R29   R(24,26)                1.3951         calculate D2E/DX2 analytically  !
 ! R30   R(26,27)                1.3951         calculate D2E/DX2 analytically  !
 ! R31   R(26,31)                1.0905         calculate D2E/DX2 analytically  !
 ! R32   R(27,28)                1.0903         calculate D2E/DX2 analytically  !
 ! R33   R(27,29)                1.3927         calculate D2E/DX2 analytically  !
 ! R34   R(29,30)                1.0908         calculate D2E/DX2 analytically  !
 ! A1    A(2,1,11)             105.4249         calculate D2E/DX2 analytically  !
 ! A2    A(2,1,19)             110.19           calculate D2E/DX2 analytically  !
 ! A3    A(2,1,20)             110.1997         calculate D2E/DX2 analytically  !
 ! A4    A(11,1,19)            110.5614         calculate D2E/DX2 analytically  !
 ! A5    A(11,1,20)            109.7234         calculate D2E/DX2 analytically  !
 ! A6    A(19,1,20)            110.6208         calculate D2E/DX2 analytically  !
 ! A7    A(1,2,3)              125.747          calculate D2E/DX2 analytically  !
 ! A8    A(1,2,9)              126.0051         calculate D2E/DX2 analytically  !
 ! A9    A(3,2,9)              108.2475         calculate D2E/DX2 analytically  !
 ! A10   A(2,3,4)              120.4425         calculate D2E/DX2 analytically  !
 ! A11   A(2,3,5)              110.19           calculate D2E/DX2 analytically  !
 ! A12   A(4,3,5)              129.3654         calculate D2E/DX2 analytically  !
 ! A13   A(3,5,6)              125.7731         calculate D2E/DX2 analytically  !
 ! A14   A(3,5,7)              106.6078         calculate D2E/DX2 analytically  !
 ! A15   A(6,5,7)              127.6132         calculate D2E/DX2 analytically  !
 ! A16   A(5,7,8)              127.6313         calculate D2E/DX2 analytically  !
 ! A17   A(5,7,9)              107.0369         calculate D2E/DX2 analytically  !
 ! A18   A(8,7,9)              125.3163         calculate D2E/DX2 analytically  !
 ! A19   A(2,9,7)              107.9156         calculate D2E/DX2 analytically  !
 ! A20   A(2,9,10)             121.0672         calculate D2E/DX2 analytically  !
 ! A21   A(7,9,10)             130.8781         calculate D2E/DX2 analytically  !
 ! A22   A(9,10,18)            119.901          calculate D2E/DX2 analytically  !
 ! A23   A(9,10,21)            119.8579         calculate D2E/DX2 analytically  !
 ! A24   A(18,10,21)           120.2369         calculate D2E/DX2 analytically  !
 ! A25   A(1,11,12)            125.4557         calculate D2E/DX2 analytically  !
 ! A26   A(1,11,18)            125.9225         calculate D2E/DX2 analytically  !
 ! A27   A(12,11,18)           108.2289         calculate D2E/DX2 analytically  !
 ! A28   A(11,12,13)           120.446          calculate D2E/DX2 analytically  !
 ! A29   A(11,12,14)           110.2077         calculate D2E/DX2 analytically  !
 ! A30   A(13,12,14)           129.3425         calculate D2E/DX2 analytically  !
 ! A31   A(12,14,15)           125.7969         calculate D2E/DX2 analytically  !
 ! A32   A(12,14,16)           106.606          calculate D2E/DX2 analytically  !
 ! A33   A(15,14,16)           127.5957         calculate D2E/DX2 analytically  !
 ! A34   A(14,16,17)           127.5689         calculate D2E/DX2 analytically  !
 ! A35   A(14,16,18)           107.0424         calculate D2E/DX2 analytically  !
 ! A36   A(17,16,18)           125.3861         calculate D2E/DX2 analytically  !
 ! A37   A(10,18,11)           120.9747         calculate D2E/DX2 analytically  !
 ! A38   A(10,18,16)           131.112          calculate D2E/DX2 analytically  !
 ! A39   A(11,18,16)           107.9105         calculate D2E/DX2 analytically  !
 ! A40   A(10,21,22)           120.1681         calculate D2E/DX2 analytically  !
 ! A41   A(10,21,29)           120.4253         calculate D2E/DX2 analytically  !
 ! A42   A(22,21,29)           119.4062         calculate D2E/DX2 analytically  !
 ! A43   A(21,22,23)           119.4729         calculate D2E/DX2 analytically  !
 ! A44   A(21,22,24)           120.1669         calculate D2E/DX2 analytically  !
 ! A45   A(23,22,24)           120.343          calculate D2E/DX2 analytically  !
 ! A46   A(22,24,25)           119.6603         calculate D2E/DX2 analytically  !
 ! A47   A(22,24,26)           120.1638         calculate D2E/DX2 analytically  !
 ! A48   A(25,24,26)           120.1757         calculate D2E/DX2 analytically  !
 ! A49   A(24,26,27)           119.9239         calculate D2E/DX2 analytically  !
 ! A50   A(24,26,31)           120.0392         calculate D2E/DX2 analytically  !
 ! A51   A(27,26,31)           120.0369         calculate D2E/DX2 analytically  !
 ! A52   A(26,27,28)           120.1712         calculate D2E/DX2 analytically  !
 ! A53   A(26,27,29)           120.1725         calculate D2E/DX2 analytically  !
 ! A54   A(28,27,29)           119.656          calculate D2E/DX2 analytically  !
 ! A55   A(21,29,27)           120.1614         calculate D2E/DX2 analytically  !
 ! A56   A(21,29,30)           119.5082         calculate D2E/DX2 analytically  !
 ! A57   A(27,29,30)           120.309          calculate D2E/DX2 analytically  !
 ! D1    D(11,1,2,3)          -171.729          calculate D2E/DX2 analytically  !
 ! D2    D(11,1,2,9)             7.9925         calculate D2E/DX2 analytically  !
 ! D3    D(19,1,2,3)           -52.4114         calculate D2E/DX2 analytically  !
 ! D4    D(19,1,2,9)           127.31           calculate D2E/DX2 analytically  !
 ! D5    D(20,1,2,3)            69.9411         calculate D2E/DX2 analytically  !
 ! D6    D(20,1,2,9)          -110.3375         calculate D2E/DX2 analytically  !
 ! D7    D(2,1,11,12)          178.3265         calculate D2E/DX2 analytically  !
 ! D8    D(2,1,11,18)           -9.7273         calculate D2E/DX2 analytically  !
 ! D9    D(19,1,11,12)          59.2559         calculate D2E/DX2 analytically  !
 ! D10   D(19,1,11,18)        -128.798          calculate D2E/DX2 analytically  !
 ! D11   D(20,1,11,12)         -63.0247         calculate D2E/DX2 analytically  !
 ! D12   D(20,1,11,18)         108.9214         calculate D2E/DX2 analytically  !
 ! D13   D(1,2,3,4)              0.228          calculate D2E/DX2 analytically  !
 ! D14   D(1,2,3,5)            179.7567         calculate D2E/DX2 analytically  !
 ! D15   D(9,2,3,4)           -179.5348         calculate D2E/DX2 analytically  !
 ! D16   D(9,2,3,5)             -0.006          calculate D2E/DX2 analytically  !
 ! D17   D(1,2,9,7)           -179.4693         calculate D2E/DX2 analytically  !
 ! D18   D(1,2,9,10)            -3.315          calculate D2E/DX2 analytically  !
 ! D19   D(3,2,9,7)              0.2927         calculate D2E/DX2 analytically  !
 ! D20   D(3,2,9,10)           176.447          calculate D2E/DX2 analytically  !
 ! D21   D(2,3,5,6)           -179.4601         calculate D2E/DX2 analytically  !
 ! D22   D(2,3,5,7)             -0.2873         calculate D2E/DX2 analytically  !
 ! D23   D(4,3,5,6)              0.0143         calculate D2E/DX2 analytically  !
 ! D24   D(4,3,5,7)            179.1872         calculate D2E/DX2 analytically  !
 ! D25   D(3,5,7,8)           -178.1616         calculate D2E/DX2 analytically  !
 ! D26   D(3,5,7,9)              0.454          calculate D2E/DX2 analytically  !
 ! D27   D(6,5,7,8)              0.9912         calculate D2E/DX2 analytically  !
 ! D28   D(6,5,7,9)            179.6068         calculate D2E/DX2 analytically  !
 ! D29   D(5,7,9,2)             -0.4671         calculate D2E/DX2 analytically  !
 ! D30   D(5,7,9,10)          -176.1095         calculate D2E/DX2 analytically  !
 ! D31   D(8,7,9,2)            178.1893         calculate D2E/DX2 analytically  !
 ! D32   D(8,7,9,10)             2.5469         calculate D2E/DX2 analytically  !
 ! D33   D(2,9,10,18)           -1.4312         calculate D2E/DX2 analytically  !
 ! D34   D(2,9,10,21)          179.3128         calculate D2E/DX2 analytically  !
 ! D35   D(7,9,10,18)          173.7271         calculate D2E/DX2 analytically  !
 ! D36   D(7,9,10,21)           -5.5289         calculate D2E/DX2 analytically  !
 ! D37   D(9,10,18,11)          -0.2417         calculate D2E/DX2 analytically  !
 ! D38   D(9,10,18,16)         179.0731         calculate D2E/DX2 analytically  !
 ! D39   D(21,10,18,11)        179.0115         calculate D2E/DX2 analytically  !
 ! D40   D(21,10,18,16)         -1.6737         calculate D2E/DX2 analytically  !
 ! D41   D(9,10,21,22)         -53.1942         calculate D2E/DX2 analytically  !
 ! D42   D(9,10,21,29)         126.5694         calculate D2E/DX2 analytically  !
 ! D43   D(18,10,21,22)        127.5524         calculate D2E/DX2 analytically  !
 ! D44   D(18,10,21,29)        -52.6841         calculate D2E/DX2 analytically  !
 ! D45   D(1,11,12,13)          -6.2444         calculate D2E/DX2 analytically  !
 ! D46   D(1,11,12,14)         173.1069         calculate D2E/DX2 analytically  !
 ! D47   D(18,11,12,13)       -179.3839         calculate D2E/DX2 analytically  !
 ! D48   D(18,11,12,14)         -0.0325         calculate D2E/DX2 analytically  !
 ! D49   D(1,11,18,10)           6.7973         calculate D2E/DX2 analytically  !
 ! D50   D(1,11,18,16)        -172.6602         calculate D2E/DX2 analytically  !
 ! D51   D(12,11,18,10)        179.8963         calculate D2E/DX2 analytically  !
 ! D52   D(12,11,18,16)          0.4388         calculate D2E/DX2 analytically  !
 ! D53   D(11,12,14,15)       -179.9889         calculate D2E/DX2 analytically  !
 ! D54   D(11,12,14,16)         -0.3927         calculate D2E/DX2 analytically  !
 ! D55   D(13,12,14,15)         -0.712          calculate D2E/DX2 analytically  !
 ! D56   D(13,12,14,16)        178.8843         calculate D2E/DX2 analytically  !
 ! D57   D(12,14,16,17)       -178.7867         calculate D2E/DX2 analytically  !
 ! D58   D(12,14,16,18)          0.6442         calculate D2E/DX2 analytically  !
 ! D59   D(15,14,16,17)          0.8            calculate D2E/DX2 analytically  !
 ! D60   D(15,14,16,18)       -179.769          calculate D2E/DX2 analytically  !
 ! D61   D(14,16,18,10)        179.9405         calculate D2E/DX2 analytically  !
 ! D62   D(14,16,18,11)         -0.6769         calculate D2E/DX2 analytically  !
 ! D63   D(17,16,18,10)         -0.6128         calculate D2E/DX2 analytically  !
 ! D64   D(17,16,18,11)        178.7698         calculate D2E/DX2 analytically  !
 ! D65   D(10,21,22,23)         -1.2944         calculate D2E/DX2 analytically  !
 ! D66   D(10,21,22,24)       -179.7947         calculate D2E/DX2 analytically  !
 ! D67   D(29,21,22,23)        178.9396         calculate D2E/DX2 analytically  !
 ! D68   D(29,21,22,24)          0.4394         calculate D2E/DX2 analytically  !
 ! D69   D(10,21,29,27)       -179.528          calculate D2E/DX2 analytically  !
 ! D70   D(10,21,29,30)         -1.2075         calculate D2E/DX2 analytically  !
 ! D71   D(22,21,29,27)          0.2374         calculate D2E/DX2 analytically  !
 ! D72   D(22,21,29,30)        178.5578         calculate D2E/DX2 analytically  !
 ! D73   D(21,22,24,25)        179.1502         calculate D2E/DX2 analytically  !
 ! D74   D(21,22,24,26)         -0.7065         calculate D2E/DX2 analytically  !
 ! D75   D(23,22,24,25)          0.6631         calculate D2E/DX2 analytically  !
 ! D76   D(23,22,24,26)       -179.1936         calculate D2E/DX2 analytically  !
 ! D77   D(22,24,26,27)          0.2946         calculate D2E/DX2 analytically  !
 ! D78   D(22,24,26,31)       -179.6526         calculate D2E/DX2 analytically  !
 ! D79   D(25,24,26,27)       -179.5613         calculate D2E/DX2 analytically  !
 ! D80   D(25,24,26,31)          0.4915         calculate D2E/DX2 analytically  !
 ! D81   D(24,26,27,28)       -179.4054         calculate D2E/DX2 analytically  !
 ! D82   D(24,26,27,29)          0.3839         calculate D2E/DX2 analytically  !
 ! D83   D(31,26,27,28)          0.5418         calculate D2E/DX2 analytically  !
 ! D84   D(31,26,27,29)       -179.6689         calculate D2E/DX2 analytically  !
 ! D85   D(26,27,29,21)         -0.6493         calculate D2E/DX2 analytically  !
 ! D86   D(26,27,29,30)       -178.9562         calculate D2E/DX2 analytically  !
 ! D87   D(28,27,29,21)        179.1411         calculate D2E/DX2 analytically  !
 ! D88   D(28,27,29,30)          0.8342         calculate D2E/DX2 analytically  !
 --------------------------------------------------------------------------------
 Trust Radius=3.00D-01 FncErr=5.00D-06 GrdErr=5.00D-06 EigMax=2.50D+02 EigMin=1.00D-04
 Number of steps in this run=    186 maximum allowed number of steps=    186.
 GradGradGradGradGradGradGradGradGradGradGradGradGradGradGradGradGradGrad

 Leave Link  103 at Tue Feb  1 12:10:30 2022, MaxMem= 11408506880 cpu:               0.2 elap:               0.0
 (Enter /lustre1/prg/gaussian/bin/G16_C01_Linda9.2_SSE4/g16/l202.exe)
                          Input orientation:                          
 ---------------------------------------------------------------------
 Center     Atomic      Atomic             Coordinates (Angstroms)
 Number     Number       Type             X           Y           Z
 ---------------------------------------------------------------------
      1          5           0       -0.004686   -0.107152    0.005226
      2          7           0        0.003548   -0.034800    1.560532
      3          6           0        1.091421    0.033991    2.332896
      4          1           0        2.083673    0.047162    1.887420
      5          6           0        0.720322    0.091400    3.692526
      6          1           0        1.402293    0.160633    4.533920
      7          6           0       -0.667171    0.061134    3.726743
      8          1           0       -1.310438    0.116342    4.600311
      9          6           0       -1.114442   -0.025116    2.382722
     10          6           0       -2.410750   -0.013491    1.843035
     11          7           0       -1.499087    0.044745   -0.408802
     12          6           0       -1.956852    0.070138   -1.663643
     13          1           0       -1.264713    0.083072   -2.502719
     14          6           0       -3.367211    0.060949   -1.668014
     15          1           0       -3.999396    0.076583   -2.550027
     16          6           0       -3.767823    0.019114   -0.339442
     17          1           0       -4.782894   -0.017180    0.045352
     18          6           0       -2.589001    0.018861    0.450605
     19          9           0        0.756717    0.926383   -0.527040
     20          9           0        0.477796   -1.341339   -0.421102
     21          6           0       -3.583787   -0.018728    2.744297
     22          6           0       -3.704225   -1.000408    3.738689
     23          1           0       -2.937387   -1.771143    3.827681
     24          6           0       -4.810726   -1.007863    4.584417
     25          1           0       -4.902855   -1.783062    5.345534
     26          6           0       -5.797590   -0.030121    4.456265
     27          6           0       -5.678943    0.953982    3.474528
     28          1           0       -6.442924    1.725709    3.377094
     29          6           0       -4.581809    0.958273    2.616723
     30          1           0       -4.478169    1.736484    1.859444
     31          1           0       -6.660297   -0.034554    5.123247
 ---------------------------------------------------------------------
                    Distance matrix (angstroms):
                    1          2          3          4          5
     1  B    0.000000
     2  N    1.557010   0.000000
     3  C    2.576707   1.335944   0.000000
     4  H    2.815619   2.107248   1.087744   0.000000
     5  C    3.763142   2.252796   1.410533   2.262541   0.000000
     6  H    4.749776   3.291765   2.226474   2.735163   1.085275
     7  C    3.783767   2.269700   2.244146   3.309146   1.388245
     8  H    4.782232   3.315066   3.304070   4.345636   2.224563
     9  C    2.625029   1.387801   2.207217   3.237049   2.257326
    10  C    3.029102   2.430863   3.536583   4.495051   3.638026
    11  N    1.558116   2.478410   3.771970   4.255445   4.663566
    12  C    2.574395   3.774849   5.026490   5.379258   5.988010
    13  H    2.813120   4.258214   5.379307   5.521440   6.505497
    14  C    3.759596   4.668479   5.990610   6.507952   6.741234
    15  H    4.745607   5.738699   7.054160   7.529643   7.825946
    16  C    3.780997   4.223274   5.545617   6.260967   6.033692
    17  H    4.779223   5.020568   6.304209   7.109648   6.602958
    18  C    2.625438   2.820661   4.133855   4.888673   4.633242
    19  F    1.389689   2.418490   3.014569   2.891965   4.301541
    20  F    1.392035   2.420502   3.138881   3.136248   4.362739
    21  C    4.507804   3.777636   4.693570   5.732249   4.408698
    22  C    5.331345   4.407306   5.103377   6.166390   4.557498
    23  H    5.097133   4.099262   4.660921   5.681715   4.106844
    24  C    6.699126   5.767839   6.402355   7.477941   5.709321
    25  H    7.437716   6.438591   6.950469   8.007487   6.153549
    26  C    7.305848   6.483710   7.209111   8.289707   6.563630
    27  C    6.734928   6.077152   6.927304   7.974926   6.460818
    28  H    7.495317   6.925048   7.792215   8.817001   7.354084
    29  C    5.376347   4.809078   5.755032   6.766879   5.479180
    30  H    5.181618   4.828311   5.843199   6.775866   5.752460
    31  H    8.396223   7.556439   8.238925   9.323855   7.519067
                    6          7          8          9         10
     6  H    0.000000
     7  C    2.223537   0.000000
     8  H    2.713905   1.086260   0.000000
     9  C    3.316038   1.419113   2.230723   0.000000
    10  C    4.670169   2.567877   2.971551   1.404212   0.000000
    11  N    5.732533   4.218422   5.013175   2.818765   2.430080
    12  C    7.049953   5.542528   6.297389   4.134223   3.536921
    13  H    7.525505   6.258094   7.103255   4.888949   4.495365
    14  C    7.824455   6.032712   6.597369   4.635821   3.639756
    15  H    8.908850   7.106462   7.639333   5.715358   4.672355
    16  C    7.106320   5.113675   5.518093   3.801653   2.570198
    17  H    7.644305   5.522495   5.729174   4.349816   2.976364
    18  C    5.711741   3.798460   4.343304   2.430912   1.404166
    19  F    5.159114   4.568455   5.587399   3.587938   4.066136
    20  F    5.259549   4.525759   5.526048   3.482685   3.902973
    21  C    5.300558   3.078673   2.937881   2.495685   1.479296
    22  C    5.296880   3.217252   2.778442   3.081691   2.498117
    23  H    4.802432   2.919128   2.608931   2.908547   2.702870
    24  C    6.322147   4.364334   3.676426   4.413136   3.776749
    25  H    6.647673   4.895157   4.131411   5.120615   4.648599
    26  C    7.202828   5.182830   4.491852   5.121668   4.277842
    27  C    7.203861   5.096925   4.588340   4.794303   3.778738
    28  H    8.083015   6.020996   5.516225   5.696217   4.651514
    29  C    6.334142   4.166701   3.917313   3.611709   2.501283
    30  H    6.649508   4.562599   4.491295   3.832977   2.708672
    31  H    8.086455   6.154424   5.377474   6.186039   5.368322
                   11         12         13         14         15
    11  N    0.000000
    12  C    1.335971   0.000000
    13  H    2.107342   1.087783   0.000000
    14  C    2.252946   1.410396   2.262238   0.000000
    15  H    3.292021   2.226590   2.735100   1.085288   0.000000
    16  C    2.269941   2.244043   3.308990   1.388288   2.223424
    17  H    3.315642   3.303756   4.345148   2.223935   2.712684
    18  C    1.388223   2.207326   3.237280   2.257416   3.316073
    19  F    2.424854   3.064062   2.949688   4.365499   5.237867
    20  F    2.414425   3.076311   3.065683   4.278467   5.156362
    21  C    3.780481   4.699441   5.737564   4.418342   5.311467
    22  C    4.812137   5.777938   6.788249   5.520190   6.387095
    23  H    4.828452   5.874215   6.805139   5.808956   6.724367
    24  C    6.083352   6.953052   7.999490   6.505305   7.261857
    25  H    6.931010   7.825717   8.849498   7.412721   8.161765
    26  C    6.492427   7.225967   8.305856   6.589524   7.234156
    27  C    5.777383   6.405930   7.481403   5.708533   6.315534
    28  H    6.449820   6.948006   8.005269   6.138774   6.619759
    29  C    4.414919   5.099090   6.162612   4.543062   5.273698
    30  H    4.108753   4.641755   5.664674   4.060124   4.735813
    31  H    7.566237   8.258040   9.342458   7.548163   8.122308
                   16         17         18         19         20
    16  C    0.000000
    17  H    1.086164   0.000000
    18  C    1.419083   2.231299   0.000000
    19  F    4.618419   5.648472   3.601835   0.000000
    20  F    4.459011   5.444799   3.466304   2.287265   0.000000
    21  C    3.089457   2.953331   2.500407   5.516779   5.316531
    22  C    4.204120   3.971272   3.618581   6.465986   5.908417
    23  H    4.610809   4.559418   3.837985   6.315588   5.468122
    24  C    5.136800   4.646002   4.804022   7.801585   7.289368
    25  H    6.070839   5.587903   5.706240   8.594124   7.899406
    26  C    5.207800   4.526138   5.132519   8.288979   8.055338
    27  C    4.367233   3.674957   4.423381   7.578326   7.638708
    28  H    4.886847   4.110215   5.131315   8.228974   8.469324
    29  C    3.206790   2.757516   3.089635   6.195492   6.333735
    30  H    2.879071   2.541481   2.916164   5.809957   6.263823
    31  H    6.181445   5.413868   6.197732   9.373433   9.132353
                   21         22         23         24         25
    21  C    0.000000
    22  C    1.402504   0.000000
    23  H    2.159285   1.090868   0.000000
    24  C    2.422769   1.392715   2.159779   0.000000
    25  H    3.408702   2.152025   2.483361   1.090285   0.000000
    26  C    2.798551   2.416309   3.406910   1.395100   2.159665
    27  C    2.422619   2.790866   3.881643   2.415469   3.405053
    28  H    3.408542   3.881100   4.971900   3.405013   4.307905
    29  C    1.402446   2.421857   3.408849   2.791042   3.881288
    30  H    2.159549   3.408978   4.307135   3.881689   4.971960
    31  H    3.889032   3.404150   4.307469   2.158375   2.489035
                   26         27         28         29         30
    26  C    0.000000
    27  C    1.395114   0.000000
    28  H    2.159631   1.090286   0.000000
    29  C    2.416394   1.392678   2.151946   0.000000
    30  H    3.406647   2.159320   2.482668   1.090791   0.000000
    31  H    1.090481   2.158364   2.488941   3.404186   4.307049
                   31
    31  H    0.000000
 Symmetry turned off by external request.
 Stoichiometry    C15H11BF2N2
 Framework group  C1[X(C15H11BF2N2)]
 Deg. of freedom    87
 Full point group                 C1      NOp   1
 Rotational constants (GHZ):           0.5801125           0.2825441           0.2065986
 Leave Link  202 at Tue Feb  1 12:10:30 2022, MaxMem= 11408506880 cpu:               0.1 elap:               0.0
 (Enter /lustre1/prg/gaussian/bin/G16_C01_Linda9.2_SSE4/g16/l301.exe)
 Standard basis: CC-pVDZ (5D, 7F)
 Ernie: Thresh=  0.10000D-02 Tol=  0.10000D-05 Strict=F.
 Ernie:  40 primitive shells out of 495 were deleted.
   335 basis functions,   737 primitive gaussians,   355 cartesian basis functions
    69 alpha electrons       69 beta electrons
       nuclear repulsion energy      1470.3616980773 Hartrees.
 IExCor= 4336 DFT=T Ex+Corr=M062X ExCW=0 ScaHFX=  0.540000
 ScaDFX=  1.000000  1.000000  1.000000  1.000000 ScalE2=  1.000000  1.000000
 IRadAn=      5 IRanWt=     -1 IRanGd=            0 ICorTp=0 IEmpDi=  4
 NAtoms=   31 NActive=   31 NUniq=   31 SFac= 1.00D+00 NAtFMM=   60 NAOKFM=F Big=F
 Integral buffers will be    131072 words long.
 Raffenetti 2 integral format.
 Two-electron integral symmetry is turned off.
 Force inversion solution in PCM.
 ------------------------------------------------------------------------------
 Polarizable Continuum Model (PCM)
 =================================
 Model                : C-PCM.
 Atomic radii         : UFF (Universal Force Field).
 Polarization charges : Total charges.
 Charge compensation  : None.
 Solution method      : Matrix inversion.
 Cavity type          : Scaled VdW (van der Waals Surface) (Alpha=1.100).
 Cavity algorithm     : GePol (No added spheres)
                        Default sphere list used, NSphG=   31.
                        Lebedev-Laikov grids with approx.  5.0 points / Ang**2.
                        Smoothing algorithm: York/Karplus (Gamma=1.0000).
                        Polarization charges: spherical gaussians, with
                                              point-specific exponents (IZeta= 3).
                        Self-potential: point-specific (ISelfS= 7).
                        Self-field    : sphere-specific E.n sum rule (ISelfD= 2).
 1st derivatives      : Analytical E(r).r(x)/FMM algorithm (CHGder, D1EAlg=3).
                        Cavity 1st derivative terms included.
 2nd derivatives      : Analytical E(r).r(xy)/FMM algorithm (CHGder, D2EAlg=3).
                        Cavity 2nd derivative terms included.
 Solvent              : Acetone, Eps=  20.493000 Eps(inf)=   1.846337
 ------------------------------------------------------------------------------
 GePol: Number of generator spheres                  =      31
 GePol: Total number of spheres                      =      31
 GePol: Number of exposed spheres                    =      31 (100.00%)
 GePol: Number of points                             =    2482
 GePol: Average weight of points                     =       0.13
 GePol: Minimum weight of points                     =   0.79D-11
 GePol: Maximum weight of points                     =    0.20577
 GePol: Number of points with low weight             =     149
 GePol: Fraction of low-weight points (<1% of avg)   =       6.00%
 GePol: Cavity surface area                          =    315.576 Ang**2
 GePol: Cavity volume                                =    347.017 Ang**3
 Leave Link  301 at Tue Feb  1 12:10:30 2022, MaxMem= 11408506880 cpu:               1.3 elap:               0.1
@@@@@@@@@@@@@@@@@@@@@@@@@@@@@@@@@@@@@@@@@@@@@@@@@@@@@@@@@@@
@    WARNING: REMOTE HOST IDENTIFICATION HAS CHANGED!     @
@@@@@@@@@@@@@@@@@@@@@@@@@@@@@@@@@@@@@@@@@@@@@@@@@@@@@@@@@@@
IT IS POSSIBLE THAT SOMEONE IS DOING SOMETHING NASTY!
Someone could be eavesdropping on you right now (man-in-the-middle attack)!
It is also possible that a host key has just been changed.
The fingerprint for the ECDSA key sent by the remote host is
SHA256:800ICgCQYNCAEDeUW1SwBVSf1e3qTb6ovHlMpmKSz/k.
Please contact your system administrator.
Add correct host key in /lustre2/home/toliste/.ssh/known_hosts to get rid of this message.
Offending ECDSA key in /lustre2/home/toliste/.ssh/known_hosts:102
Password authentication is disabled to avoid man-in-the-middle attacks.
Keyboard-interactive authentication is disabled to avoid man-in-the-middle attacks.
@@@@@@@@@@@@@@@@@@@@@@@@@@@@@@@@@@@@@@@@@@@@@@@@@@@@@@@@@@@
@    WARNING: REMOTE HOST IDENTIFICATION HAS CHANGED!     @
@@@@@@@@@@@@@@@@@@@@@@@@@@@@@@@@@@@@@@@@@@@@@@@@@@@@@@@@@@@
IT IS POSSIBLE THAT SOMEONE IS DOING SOMETHING NASTY!
Someone could be eavesdropping on you right now (man-in-the-middle attack)!
It is also possible that a host key has just been changed.
The fingerprint for the ECDSA key sent by the remote host is
SHA256:6AWBleXdvALBRr8T/NJHTnwCTqTl+zwRZzrcXBR+Q7A.
Please contact your system administrator.
Add correct host key in /lustre2/home/toliste/.ssh/known_hosts to get rid of this message.
Offending ECDSA key in /lustre2/home/toliste/.ssh/known_hosts:62
Password authentication is disabled to avoid man-in-the-middle attacks.
Keyboard-interactive authentication is disabled to avoid man-in-the-middle attacks.
@@@@@@@@@@@@@@@@@@@@@@@@@@@@@@@@@@@@@@@@@@@@@@@@@@@@@@@@@@@
@    WARNING: REMOTE HOST IDENTIFICATION HAS CHANGED!     @
@@@@@@@@@@@@@@@@@@@@@@@@@@@@@@@@@@@@@@@@@@@@@@@@@@@@@@@@@@@
IT IS POSSIBLE THAT SOMEONE IS DOING SOMETHING NASTY!
Someone could be eavesdropping on you right now (man-in-the-middle attack)!
It is also possible that a host key has just been changed.
The fingerprint for the ECDSA key sent by the remote host is
SHA256:8rjYfDO3JlbDXTefHWc6TrhQ35S4vzq+Jw4FkJeir7c.
Please contact your system administrator.
Add correct host key in /lustre2/home/toliste/.ssh/known_hosts to get rid of this message.
Offending ECDSA key in /lustre2/home/toliste/.ssh/known_hosts:43
Password authentication is disabled to avoid man-in-the-middle attacks.
Keyboard-interactive authentication is disabled to avoid man-in-the-middle attacks.
@@@@@@@@@@@@@@@@@@@@@@@@@@@@@@@@@@@@@@@@@@@@@@@@@@@@@@@@@@@
@    WARNING: REMOTE HOST IDENTIFICATION HAS CHANGED!     @
@@@@@@@@@@@@@@@@@@@@@@@@@@@@@@@@@@@@@@@@@@@@@@@@@@@@@@@@@@@
IT IS POSSIBLE THAT SOMEONE IS DOING SOMETHING NASTY!
Someone could be eavesdropping on you right now (man-in-the-middle attack)!
It is also possible that a host key has just been changed.
The fingerprint for the ECDSA key sent by the remote host is
SHA256:Ig8LihuAfIQ06SMELJzN8hUGL3IF4hxP55+N5V8AdXA.
Please contact your system administrator.
Add correct host key in /lustre2/home/toliste/.ssh/known_hosts to get rid of this message.
Offending ECDSA key in /lustre2/home/toliste/.ssh/known_hosts:135
Password authentication is disabled to avoid man-in-the-middle attacks.
Keyboard-interactive authentication is disabled to avoid man-in-the-middle attacks.
@@@@@@@@@@@@@@@@@@@@@@@@@@@@@@@@@@@@@@@@@@@@@@@@@@@@@@@@@@@
@    WARNING: REMOTE HOST IDENTIFICATION HAS CHANGED!     @
@@@@@@@@@@@@@@@@@@@@@@@@@@@@@@@@@@@@@@@@@@@@@@@@@@@@@@@@@@@
IT IS POSSIBLE THAT SOMEONE IS DOING SOMETHING NASTY!
Someone could be eavesdropping on you right now (man-in-the-middle attack)!
It is also possible that a host key has just been changed.
The fingerprint for the ECDSA key sent by the remote host is
SHA256:riRvS+NSPMnm0eRsRLnP85zCpheP3PvpkZYo1uiC2BQ.
Please contact your system administrator.
Add correct host key in /lustre2/home/toliste/.ssh/known_hosts to get rid of this message.
Offending ECDSA key in /lustre2/home/toliste/.ssh/known_hosts:138
Password authentication is disabled to avoid man-in-the-middle attacks.
Keyboard-interactive authentication is disabled to avoid man-in-the-middle attacks.
@@@@@@@@@@@@@@@@@@@@@@@@@@@@@@@@@@@@@@@@@@@@@@@@@@@@@@@@@@@
@    WARNING: REMOTE HOST IDENTIFICATION HAS CHANGED!     @
@@@@@@@@@@@@@@@@@@@@@@@@@@@@@@@@@@@@@@@@@@@@@@@@@@@@@@@@@@@
IT IS POSSIBLE THAT SOMEONE IS DOING SOMETHING NASTY!
Someone could be eavesdropping on you right now (man-in-the-middle attack)!
It is also possible that a host key has just been changed.
The fingerprint for the ECDSA key sent by the remote host is
SHA256:NBZ/p8XhzeMZmTyxxPFJCk4g63xC8UWb2pXQT2ikZ60.
Please contact your system administrator.
Add correct host key in /lustre2/home/toliste/.ssh/known_hosts to get rid of this message.
Offending ECDSA key in /lustre2/home/toliste/.ssh/known_hosts:137
Password authentication is disabled to avoid man-in-the-middle attacks.
Keyboard-interactive authentication is disabled to avoid man-in-the-middle attacks.
@@@@@@@@@@@@@@@@@@@@@@@@@@@@@@@@@@@@@@@@@@@@@@@@@@@@@@@@@@@
@    WARNING: REMOTE HOST IDENTIFICATION HAS CHANGED!     @
@@@@@@@@@@@@@@@@@@@@@@@@@@@@@@@@@@@@@@@@@@@@@@@@@@@@@@@@@@@
IT IS POSSIBLE THAT SOMEONE IS DOING SOMETHING NASTY!
Someone could be eavesdropping on you right now (man-in-the-middle attack)!
It is also possible that a host key has just been changed.
The fingerprint for the ECDSA key sent by the remote host is
SHA256:KX001MXmKX1SZsVdeUgJ5vP9GhgFy5i+dR3x9qKC5Vs.
Please contact your system administrator.
Add correct host key in /lustre2/home/toliste/.ssh/known_hosts to get rid of this message.
Offending ECDSA key in /lustre2/home/toliste/.ssh/known_hosts:103
Password authentication is disabled to avoid man-in-the-middle attacks.
Keyboard-interactive authentication is disabled to avoid man-in-the-middle attacks.
 (Enter /lustre1/prg/gaussian/bin/G16_C01_Linda9.2_SSE4/g16/linda-exe/l302.exel)
 NPDir=0 NMtPBC=     1 NCelOv=     1 NCel=       1 NClECP=     1 NCelD=      1
         NCelK=      1 NCelE2=     1 NClLst=     1 CellRange=     0.0.
 One-electron integrals computed using PRISM.
 NBasis=   335 RedAO= T EigKep=  2.50D-04  NBF=   335
 NBsUse=   335 1.00D-06 EigRej= -1.00D+00 NBFU=   335
 Precomputing XC quadrature grid using
 IXCGrd= 4 IRadAn=           5 IRanWt=          -1 IRanGd=           0 AccXCQ= 0.00D+00.
 Generated NRdTot=       0 NPtTot=           0 NUsed=           0 NTot=          32
 NSgBfM=   354   354   354   354   354 MxSgAt=    31 MxSgA2=    31.
 Leave Link  302 at Tue Feb  1 12:10:34 2022, MaxMem= 11408506880 cpu:              18.9 elap:               1.7
 (Enter /lustre1/prg/gaussian/bin/G16_C01_Linda9.2_SSE4/g16/l303.exe)
 DipDrv:  MaxL=1.
 Leave Link  303 at Tue Feb  1 12:10:35 2022, MaxMem= 11408506880 cpu:               1.5 elap:               0.3
@@@@@@@@@@@@@@@@@@@@@@@@@@@@@@@@@@@@@@@@@@@@@@@@@@@@@@@@@@@
@    WARNING: REMOTE HOST IDENTIFICATION HAS CHANGED!     @
@@@@@@@@@@@@@@@@@@@@@@@@@@@@@@@@@@@@@@@@@@@@@@@@@@@@@@@@@@@
IT IS POSSIBLE THAT SOMEONE IS DOING SOMETHING NASTY!
Someone could be eavesdropping on you right now (man-in-the-middle attack)!
It is also possible that a host key has just been changed.
The fingerprint for the ECDSA key sent by the remote host is
SHA256:800ICgCQYNCAEDeUW1SwBVSf1e3qTb6ovHlMpmKSz/k.
Please contact your system administrator.
Add correct host key in /lustre2/home/toliste/.ssh/known_hosts to get rid of this message.
Offending ECDSA key in /lustre2/home/toliste/.ssh/known_hosts:102
Password authentication is disabled to avoid man-in-the-middle attacks.
Keyboard-interactive authentication is disabled to avoid man-in-the-middle attacks.
@@@@@@@@@@@@@@@@@@@@@@@@@@@@@@@@@@@@@@@@@@@@@@@@@@@@@@@@@@@
@    WARNING: REMOTE HOST IDENTIFICATION HAS CHANGED!     @
@@@@@@@@@@@@@@@@@@@@@@@@@@@@@@@@@@@@@@@@@@@@@@@@@@@@@@@@@@@
IT IS POSSIBLE THAT SOMEONE IS DOING SOMETHING NASTY!
Someone could be eavesdropping on you right now (man-in-the-middle attack)!
It is also possible that a host key has just been changed.
The fingerprint for the ECDSA key sent by the remote host is
SHA256:Ig8LihuAfIQ06SMELJzN8hUGL3IF4hxP55+N5V8AdXA.
Please contact your system administrator.
Add correct host key in /lustre2/home/toliste/.ssh/known_hosts to get rid of this message.
Offending ECDSA key in /lustre2/home/toliste/.ssh/known_hosts:135
Password authentication is disabled to avoid man-in-the-middle attacks.
Keyboard-interactive authentication is disabled to avoid man-in-the-middle attacks.
@@@@@@@@@@@@@@@@@@@@@@@@@@@@@@@@@@@@@@@@@@@@@@@@@@@@@@@@@@@
@    WARNING: REMOTE HOST IDENTIFICATION HAS CHANGED!     @
@@@@@@@@@@@@@@@@@@@@@@@@@@@@@@@@@@@@@@@@@@@@@@@@@@@@@@@@@@@
IT IS POSSIBLE THAT SOMEONE IS DOING SOMETHING NASTY!
Someone could be eavesdropping on you right now (man-in-the-middle attack)!
It is also possible that a host key has just been changed.
The fingerprint for the ECDSA key sent by the remote host is
SHA256:riRvS+NSPMnm0eRsRLnP85zCpheP3PvpkZYo1uiC2BQ.
Please contact your system administrator.
Add correct host key in /lustre2/home/toliste/.ssh/known_hosts to get rid of this message.
Offending ECDSA key in /lustre2/home/toliste/.ssh/known_hosts:138
Password authentication is disabled to avoid man-in-the-middle attacks.
Keyboard-interactive authentication is disabled to avoid man-in-the-middle attacks.
@@@@@@@@@@@@@@@@@@@@@@@@@@@@@@@@@@@@@@@@@@@@@@@@@@@@@@@@@@@
@    WARNING: REMOTE HOST IDENTIFICATION HAS CHANGED!     @
@@@@@@@@@@@@@@@@@@@@@@@@@@@@@@@@@@@@@@@@@@@@@@@@@@@@@@@@@@@
IT IS POSSIBLE THAT SOMEONE IS DOING SOMETHING NASTY!
Someone could be eavesdropping on you right now (man-in-the-middle attack)!
It is also possible that a host key has just been changed.
The fingerprint for the ECDSA key sent by the remote host is
SHA256:8rjYfDO3JlbDXTefHWc6TrhQ35S4vzq+Jw4FkJeir7c.
Please contact your system administrator.
Add correct host key in /lustre2/home/toliste/.ssh/known_hosts to get rid of this message.
Offending ECDSA key in /lustre2/home/toliste/.ssh/known_hosts:43
Password authentication is disabled to avoid man-in-the-middle attacks.
Keyboard-interactive authentication is disabled to avoid man-in-the-middle attacks.
@@@@@@@@@@@@@@@@@@@@@@@@@@@@@@@@@@@@@@@@@@@@@@@@@@@@@@@@@@@
@    WARNING: REMOTE HOST IDENTIFICATION HAS CHANGED!     @
@@@@@@@@@@@@@@@@@@@@@@@@@@@@@@@@@@@@@@@@@@@@@@@@@@@@@@@@@@@
IT IS POSSIBLE THAT SOMEONE IS DOING SOMETHING NASTY!
Someone could be eavesdropping on you right now (man-in-the-middle attack)!
It is also possible that a host key has just been changed.
The fingerprint for the ECDSA key sent by the remote host is
SHA256:NBZ/p8XhzeMZmTyxxPFJCk4g63xC8UWb2pXQT2ikZ60.
Please contact your system administrator.
Add correct host key in /lustre2/home/toliste/.ssh/known_hosts to get rid of this message.
Offending ECDSA key in /lustre2/home/toliste/.ssh/known_hosts:137
Password authentication is disabled to avoid man-in-the-middle attacks.
Keyboard-interactive authentication is disabled to avoid man-in-the-middle attacks.
@@@@@@@@@@@@@@@@@@@@@@@@@@@@@@@@@@@@@@@@@@@@@@@@@@@@@@@@@@@
@    WARNING: REMOTE HOST IDENTIFICATION HAS CHANGED!     @
@@@@@@@@@@@@@@@@@@@@@@@@@@@@@@@@@@@@@@@@@@@@@@@@@@@@@@@@@@@
IT IS POSSIBLE THAT SOMEONE IS DOING SOMETHING NASTY!
Someone could be eavesdropping on you right now (man-in-the-middle attack)!
It is also possible that a host key has just been changed.
The fingerprint for the ECDSA key sent by the remote host is
SHA256:6AWBleXdvALBRr8T/NJHTnwCTqTl+zwRZzrcXBR+Q7A.
Please contact your system administrator.
Add correct host key in /lustre2/home/toliste/.ssh/known_hosts to get rid of this message.
Offending ECDSA key in /lustre2/home/toliste/.ssh/known_hosts:62
Password authentication is disabled to avoid man-in-the-middle attacks.
Keyboard-interactive authentication is disabled to avoid man-in-the-middle attacks.
@@@@@@@@@@@@@@@@@@@@@@@@@@@@@@@@@@@@@@@@@@@@@@@@@@@@@@@@@@@
@    WARNING: REMOTE HOST IDENTIFICATION HAS CHANGED!     @
@@@@@@@@@@@@@@@@@@@@@@@@@@@@@@@@@@@@@@@@@@@@@@@@@@@@@@@@@@@
IT IS POSSIBLE THAT SOMEONE IS DOING SOMETHING NASTY!
Someone could be eavesdropping on you right now (man-in-the-middle attack)!
It is also possible that a host key has just been changed.
The fingerprint for the ECDSA key sent by the remote host is
SHA256:KX001MXmKX1SZsVdeUgJ5vP9GhgFy5i+dR3x9qKC5Vs.
Please contact your system administrator.
Add correct host key in /lustre2/home/toliste/.ssh/known_hosts to get rid of this message.
Offending ECDSA key in /lustre2/home/toliste/.ssh/known_hosts:103
Password authentication is disabled to avoid man-in-the-middle attacks.
Keyboard-interactive authentication is disabled to avoid man-in-the-middle attacks.
 (Enter /lustre1/prg/gaussian/bin/G16_C01_Linda9.2_SSE4/g16/linda-exe/l401.exel)
 ExpMin= 9.54D-02 ExpMax= 1.47D+04 ExpMxC= 5.03D+02 IAcc=3 IRadAn=         5 AccDes= 0.00D+00
 Harris functional with IExCor= 1009 and IRadAn=       5 diagonalized for initial guess.
 HarFok:  IExCor= 1009 AccDes= 0.00D+00 IRadAn=         5 IDoV= 1 UseB2=F ITyADJ=14
 ICtDFT=  3500011 ScaDFX=  1.000000  1.000000  1.000000  1.000000
 FoFCou: FMM=F IPFlag=           0 FMFlag=      100000 FMFlg1=           0
         NFxFlg=           0 DoJE=T BraDBF=F KetDBF=T FulRan=T
         wScrn=  0.000000 ICntrl=       500 IOpCl=  0 I1Cent=   200000004 NGrid=           0
         NMat0=    1 NMatS0=      1 NMatT0=    0 NMatD0=    1 NMtDS0=    0 NMtDT0=    0
 Symmetry not used in FoFCou.
 Harris En= -911.580627043332    
 JPrj=0 DoOrth=F DoCkMO=F.
 Leave Link  401 at Tue Feb  1 12:10:41 2022, MaxMem= 11408506880 cpu:              39.8 elap:               3.5
@@@@@@@@@@@@@@@@@@@@@@@@@@@@@@@@@@@@@@@@@@@@@@@@@@@@@@@@@@@
@    WARNING: REMOTE HOST IDENTIFICATION HAS CHANGED!     @
@@@@@@@@@@@@@@@@@@@@@@@@@@@@@@@@@@@@@@@@@@@@@@@@@@@@@@@@@@@
IT IS POSSIBLE THAT SOMEONE IS DOING SOMETHING NASTY!
Someone could be eavesdropping on you right now (man-in-the-middle attack)!
It is also possible that a host key has just been changed.
The fingerprint for the ECDSA key sent by the remote host is
SHA256:NBZ/p8XhzeMZmTyxxPFJCk4g63xC8UWb2pXQT2ikZ60.
Please contact your system administrator.
Add correct host key in /lustre2/home/toliste/.ssh/known_hosts to get rid of this message.
Offending ECDSA key in /lustre2/home/toliste/.ssh/known_hosts:137
Password authentication is disabled to avoid man-in-the-middle attacks.
Keyboard-interactive authentication is disabled to avoid man-in-the-middle attacks.
@@@@@@@@@@@@@@@@@@@@@@@@@@@@@@@@@@@@@@@@@@@@@@@@@@@@@@@@@@@
@    WARNING: REMOTE HOST IDENTIFICATION HAS CHANGED!     @
@@@@@@@@@@@@@@@@@@@@@@@@@@@@@@@@@@@@@@@@@@@@@@@@@@@@@@@@@@@
IT IS POSSIBLE THAT SOMEONE IS DOING SOMETHING NASTY!
Someone could be eavesdropping on you right now (man-in-the-middle attack)!
It is also possible that a host key has just been changed.
The fingerprint for the ECDSA key sent by the remote host is
SHA256:8rjYfDO3JlbDXTefHWc6TrhQ35S4vzq+Jw4FkJeir7c.
Please contact your system administrator.
Add correct host key in /lustre2/home/toliste/.ssh/known_hosts to get rid of this message.
Offending ECDSA key in /lustre2/home/toliste/.ssh/known_hosts:43
Password authentication is disabled to avoid man-in-the-middle attacks.
Keyboard-interactive authentication is disabled to avoid man-in-the-middle attacks.
@@@@@@@@@@@@@@@@@@@@@@@@@@@@@@@@@@@@@@@@@@@@@@@@@@@@@@@@@@@
@    WARNING: REMOTE HOST IDENTIFICATION HAS CHANGED!     @
@@@@@@@@@@@@@@@@@@@@@@@@@@@@@@@@@@@@@@@@@@@@@@@@@@@@@@@@@@@
IT IS POSSIBLE THAT SOMEONE IS DOING SOMETHING NASTY!
Someone could be eavesdropping on you right now (man-in-the-middle attack)!
It is also possible that a host key has just been changed.
The fingerprint for the ECDSA key sent by the remote host is
SHA256:Ig8LihuAfIQ06SMELJzN8hUGL3IF4hxP55+N5V8AdXA.
Please contact your system administrator.
Add correct host key in /lustre2/home/toliste/.ssh/known_hosts to get rid of this message.
Offending ECDSA key in /lustre2/home/toliste/.ssh/known_hosts:135
Password authentication is disabled to avoid man-in-the-middle attacks.
Keyboard-interactive authentication is disabled to avoid man-in-the-middle attacks.
@@@@@@@@@@@@@@@@@@@@@@@@@@@@@@@@@@@@@@@@@@@@@@@@@@@@@@@@@@@
@    WARNING: REMOTE HOST IDENTIFICATION HAS CHANGED!     @
@@@@@@@@@@@@@@@@@@@@@@@@@@@@@@@@@@@@@@@@@@@@@@@@@@@@@@@@@@@
IT IS POSSIBLE THAT SOMEONE IS DOING SOMETHING NASTY!
Someone could be eavesdropping on you right now (man-in-the-middle attack)!
It is also possible that a host key has just been changed.
The fingerprint for the ECDSA key sent by the remote host is
SHA256:800ICgCQYNCAEDeUW1SwBVSf1e3qTb6ovHlMpmKSz/k.
Please contact your system administrator.
Add correct host key in /lustre2/home/toliste/.ssh/known_hosts to get rid of this message.
@@@@@@@@@@@@@@@@@@@@@@@@@@@@@@@@@@@@@@@@@@@@@@@@@@@@@@@@@@@
Offending ECDSA key in /lustre2/home/toliste/.ssh/known_hosts:102
@    WARNING: REMOTE HOST IDENTIFICATION HAS CHANGED!     @
Password authentication is disabled to avoid man-in-the-middle attacks.
@@@@@@@@@@@@@@@@@@@@@@@@@@@@@@@@@@@@@@@@@@@@@@@@@@@@@@@@@@@
Keyboard-interactive authentication is disabled to avoid man-in-the-middle attacks.
IT IS POSSIBLE THAT SOMEONE IS DOING SOMETHING NASTY!
Someone could be eavesdropping on you right now (man-in-the-middle attack)!
It is also possible that a host key has just been changed.
The fingerprint for the ECDSA key sent by the remote host is
SHA256:riRvS+NSPMnm0eRsRLnP85zCpheP3PvpkZYo1uiC2BQ.
Please contact your system administrator.
Add correct host key in /lustre2/home/toliste/.ssh/known_hosts to get rid of this message.
Offending ECDSA key in /lustre2/home/toliste/.ssh/known_hosts:138
Password authentication is disabled to avoid man-in-the-middle attacks.
Keyboard-interactive authentication is disabled to avoid man-in-the-middle attacks.
@@@@@@@@@@@@@@@@@@@@@@@@@@@@@@@@@@@@@@@@@@@@@@@@@@@@@@@@@@@
@    WARNING: REMOTE HOST IDENTIFICATION HAS CHANGED!     @
@@@@@@@@@@@@@@@@@@@@@@@@@@@@@@@@@@@@@@@@@@@@@@@@@@@@@@@@@@@
IT IS POSSIBLE THAT SOMEONE IS DOING SOMETHING NASTY!
Someone could be eavesdropping on you right now (man-in-the-middle attack)!
It is also possible that a host key has just been changed.
The fingerprint for the ECDSA key sent by the remote host is
SHA256:6AWBleXdvALBRr8T/NJHTnwCTqTl+zwRZzrcXBR+Q7A.
Please contact your system administrator.
Add correct host key in /lustre2/home/toliste/.ssh/known_hosts to get rid of this message.
Offending ECDSA key in /lustre2/home/toliste/.ssh/known_hosts:62
Password authentication is disabled to avoid man-in-the-middle attacks.
Keyboard-interactive authentication is disabled to avoid man-in-the-middle attacks.
@@@@@@@@@@@@@@@@@@@@@@@@@@@@@@@@@@@@@@@@@@@@@@@@@@@@@@@@@@@
@    WARNING: REMOTE HOST IDENTIFICATION HAS CHANGED!     @
@@@@@@@@@@@@@@@@@@@@@@@@@@@@@@@@@@@@@@@@@@@@@@@@@@@@@@@@@@@
IT IS POSSIBLE THAT SOMEONE IS DOING SOMETHING NASTY!
Someone could be eavesdropping on you right now (man-in-the-middle attack)!
It is also possible that a host key has just been changed.
The fingerprint for the ECDSA key sent by the remote host is
SHA256:KX001MXmKX1SZsVdeUgJ5vP9GhgFy5i+dR3x9qKC5Vs.
Please contact your system administrator.
Add correct host key in /lustre2/home/toliste/.ssh/known_hosts to get rid of this message.
Offending ECDSA key in /lustre2/home/toliste/.ssh/known_hosts:103
Password authentication is disabled to avoid man-in-the-middle attacks.
Keyboard-interactive authentication is disabled to avoid man-in-the-middle attacks.
 (Enter /lustre1/prg/gaussian/bin/G16_C01_Linda9.2_SSE4/g16/linda-exe/l502.exel)
 Two-electron integral symmetry not used.
 Closed shell SCF:
 Using DIIS extrapolation, IDIIS=  1040.
 NGot= 11408506880 LenX= 11408246955 LenY= 11408120489
 Requested convergence on RMS density matrix=1.00D-08 within 128 cycles.
 Requested convergence on MAX density matrix=1.00D-06.
 Requested convergence on             energy=1.00D-06.
 No special actions if energy rises.
 Fock matrices will be formed incrementally for  20 cycles.

 Cycle   1  Pass 1  IDiag  1:
 FoFJK:  IHMeth= 1 ICntrl=       0 DoSepK=F KAlg= 0 I1Cent=           0 FoldK=F
 IRaf= 870000000 NMat=       1 IRICut=       1 DoRegI=T DoRafI=F ISym2E= 0 IDoP0=0 IntGTp=1.
 FoFCou: FMM=F IPFlag=           0 FMFlag=      100000 FMFlg1=           0
         NFxFlg=           0 DoJE=F BraDBF=F KetDBF=F FulRan=T
         wScrn=  0.000000 ICntrl=         0 IOpCl=  0 I1Cent=           0 NGrid=           0
         NMat0=    1 NMatS0=      1 NMatT0=    0 NMatD0=    1 NMtDS0=    0 NMtDT0=    0
 Symmetry not used in FoFCou.
 Inv3:  Mode=1 IEnd=    18480972.
 Iteration    1 A*A^-1 deviation from unit magnitude is 8.66D-15 for    618.
 Iteration    1 A*A^-1 deviation from orthogonality  is 3.47D-15 for   2458   1193.
 Iteration    1 A^-1*A deviation from unit magnitude is 8.66D-15 for    618.
 Iteration    1 A^-1*A deviation from orthogonality  is 1.74D-15 for   1469    413.
 E= -911.877390527922    
 DIIS: error= 2.44D-02 at cycle   1 NSaved=   1.
 NSaved= 1 IEnMin= 1 EnMin= -911.877390527922     IErMin= 1 ErrMin= 2.44D-02
 ErrMax= 2.44D-02  0.00D+00 EMaxC= 1.00D-01 BMatC= 3.32D-01 BMatP= 3.32D-01
 IDIUse=3 WtCom= 7.56D-01 WtEn= 2.44D-01
 Coeff-Com:  0.100D+01
 Coeff-En:   0.100D+01
 Coeff:      0.100D+01
 Gap=     0.177 Goal=   None    Shift=    0.000
 GapD=    0.177 DampG=1.000 DampE=0.500 DampFc=0.5000 IDamp=-1.
 Damping current iteration by 5.00D-01
 RMSDP=3.58D-03 MaxDP=9.71D-02              OVMax= 1.45D-01

 Cycle   2  Pass 1  IDiag  1:
 RMSU=  1.72D-03    CP:  9.74D-01
 E= -912.038087759720     Delta-E=       -0.160697231798 Rises=F Damp=T
 DIIS: error= 7.63D-03 at cycle   2 NSaved=   2.
 NSaved= 2 IEnMin= 2 EnMin= -912.038087759720     IErMin= 2 ErrMin= 7.63D-03
 ErrMax= 7.63D-03  0.00D+00 EMaxC= 1.00D-01 BMatC= 2.85D-02 BMatP= 3.32D-01
 IDIUse=3 WtCom= 9.24D-01 WtEn= 7.63D-02
 Coeff-Com: -0.108D+00 0.111D+01
 Coeff-En:   0.000D+00 0.100D+01
 Coeff:     -0.999D-01 0.110D+01
 Gap=     0.186 Goal=   None    Shift=    0.000
 RMSDP=1.25D-03 MaxDP=6.18D-02 DE=-1.61D-01 OVMax= 8.55D-02

 Cycle   3  Pass 1  IDiag  1:
 RMSU=  9.93D-04    CP:  9.54D-01  1.39D+00
 E= -912.181364882820     Delta-E=       -0.143277123100 Rises=F Damp=F
 DIIS: error= 5.73D-03 at cycle   3 NSaved=   3.
 NSaved= 3 IEnMin= 3 EnMin= -912.181364882820     IErMin= 3 ErrMin= 5.73D-03
 ErrMax= 5.73D-03  0.00D+00 EMaxC= 1.00D-01 BMatC= 1.28D-02 BMatP= 2.85D-02
 IDIUse=3 WtCom= 9.43D-01 WtEn= 5.73D-02
 Coeff-Com: -0.109D+00 0.466D+00 0.643D+00
 Coeff-En:   0.000D+00 0.000D+00 0.100D+01
 Coeff:     -0.103D+00 0.440D+00 0.663D+00
 Gap=     0.177 Goal=   None    Shift=    0.000
 RMSDP=4.35D-04 MaxDP=2.04D-02 DE=-1.43D-01 OVMax= 4.50D-02

 Cycle   4  Pass 1  IDiag  1:
 RMSU=  3.18D-04    CP:  9.56D-01  1.42D+00  7.08D-01
 E= -912.191139699255     Delta-E=       -0.009774816436 Rises=F Damp=F
 DIIS: error= 2.52D-03 at cycle   4 NSaved=   4.
 NSaved= 4 IEnMin= 4 EnMin= -912.191139699255     IErMin= 4 ErrMin= 2.52D-03
 ErrMax= 2.52D-03  0.00D+00 EMaxC= 1.00D-01 BMatC= 2.58D-03 BMatP= 1.28D-02
 IDIUse=3 WtCom= 9.75D-01 WtEn= 2.52D-02
 Coeff-Com: -0.356D-01 0.943D-01 0.347D+00 0.594D+00
 Coeff-En:   0.000D+00 0.000D+00 0.164D+00 0.836D+00
 Coeff:     -0.347D-01 0.920D-01 0.342D+00 0.600D+00
 Gap=     0.180 Goal=   None    Shift=    0.000
 RMSDP=1.53D-04 MaxDP=7.91D-03 DE=-9.77D-03 OVMax= 1.86D-02

 Cycle   5  Pass 1  IDiag  1:
 RMSU=  6.36D-05    CP:  9.55D-01  1.42D+00  7.93D-01  6.54D-01
 E= -912.193671632384     Delta-E=       -0.002531933129 Rises=F Damp=F
 DIIS: error= 3.23D-04 at cycle   5 NSaved=   5.
 NSaved= 5 IEnMin= 5 EnMin= -912.193671632384     IErMin= 5 ErrMin= 3.23D-04
 ErrMax= 3.23D-04  0.00D+00 EMaxC= 1.00D-01 BMatC= 8.44D-05 BMatP= 2.58D-03
 IDIUse=3 WtCom= 9.97D-01 WtEn= 3.23D-03
 Coeff-Com: -0.831D-02 0.132D-01 0.104D+00 0.248D+00 0.644D+00
 Coeff-En:   0.000D+00 0.000D+00 0.000D+00 0.000D+00 0.100D+01
 Coeff:     -0.828D-02 0.131D-01 0.103D+00 0.247D+00 0.645D+00
 Gap=     0.180 Goal=   None    Shift=    0.000
 RMSDP=2.72D-05 MaxDP=1.76D-03 DE=-2.53D-03 OVMax= 2.96D-03

 Cycle   6  Pass 1  IDiag  1:
 RMSU=  1.82D-05    CP:  9.55D-01  1.43D+00  7.96D-01  6.88D-01  7.51D-01
 E= -912.193747559740     Delta-E=       -0.000075927356 Rises=F Damp=F
 DIIS: error= 1.08D-04 at cycle   6 NSaved=   6.
 NSaved= 6 IEnMin= 6 EnMin= -912.193747559740     IErMin= 6 ErrMin= 1.08D-04
 ErrMax= 1.08D-04  0.00D+00 EMaxC= 1.00D-01 BMatC= 5.16D-06 BMatP= 8.44D-05
 IDIUse=3 WtCom= 9.99D-01 WtEn= 1.08D-03
 Coeff-Com: -0.145D-02 0.284D-03 0.216D-01 0.650D-01 0.262D+00 0.653D+00
 Coeff-En:   0.000D+00 0.000D+00 0.000D+00 0.000D+00 0.000D+00 0.100D+01
 Coeff:     -0.145D-02 0.284D-03 0.216D-01 0.649D-01 0.261D+00 0.653D+00
 Gap=     0.180 Goal=   None    Shift=    0.000
 RMSDP=7.04D-06 MaxDP=3.01D-04 DE=-7.59D-05 OVMax= 6.11D-04

 Cycle   7  Pass 1  IDiag  1:
 RMSU=  5.88D-06    CP:  9.55D-01  1.43D+00  7.97D-01  6.89D-01  7.95D-01
                    CP:  8.66D-01
 E= -912.193752405909     Delta-E=       -0.000004846168 Rises=F Damp=F
 DIIS: error= 3.40D-05 at cycle   7 NSaved=   7.
 NSaved= 7 IEnMin= 7 EnMin= -912.193752405909     IErMin= 7 ErrMin= 3.40D-05
 ErrMax= 3.40D-05  0.00D+00 EMaxC= 1.00D-01 BMatC= 3.39D-07 BMatP= 5.16D-06
 IDIUse=1 WtCom= 1.00D+00 WtEn= 0.00D+00
 Coeff-Com:  0.377D-03-0.130D-02-0.379D-02-0.436D-02 0.208D-01 0.181D+00
 Coeff-Com:  0.808D+00
 Coeff:      0.377D-03-0.130D-02-0.379D-02-0.436D-02 0.208D-01 0.181D+00
 Coeff:      0.808D+00
 Gap=     0.180 Goal=   None    Shift=    0.000
 RMSDP=3.10D-06 MaxDP=1.16D-04 DE=-4.85D-06 OVMax= 3.84D-04

 Cycle   8  Pass 1  IDiag  1:
 RMSU=  2.27D-06    CP:  9.55D-01  1.43D+00  7.97D-01  6.93D-01  8.01D-01
                    CP:  9.59D-01  9.87D-01
 E= -912.193752763221     Delta-E=       -0.000000357312 Rises=F Damp=F
 DIIS: error= 2.00D-05 at cycle   8 NSaved=   8.
 NSaved= 8 IEnMin= 8 EnMin= -912.193752763221     IErMin= 8 ErrMin= 2.00D-05
 ErrMax= 2.00D-05  0.00D+00 EMaxC= 1.00D-01 BMatC= 1.40D-07 BMatP= 3.39D-07
 IDIUse=1 WtCom= 1.00D+00 WtEn= 0.00D+00
 Coeff-Com:  0.448D-03-0.760D-03-0.545D-02-0.126D-01-0.302D-01-0.170D-01
 Coeff-Com:  0.440D+00 0.626D+00
 Coeff:      0.448D-03-0.760D-03-0.545D-02-0.126D-01-0.302D-01-0.170D-01
 Coeff:      0.440D+00 0.626D+00
 Gap=     0.180 Goal=   None    Shift=    0.000
 RMSDP=1.33D-06 MaxDP=8.59D-05 DE=-3.57D-07 OVMax= 1.69D-04

 Cycle   9  Pass 1  IDiag  1:
 RMSU=  7.55D-07    CP:  9.55D-01  1.43D+00  7.97D-01  6.93D-01  8.08D-01
                    CP:  9.76D-01  1.08D+00  7.07D-01
 E= -912.193752922935     Delta-E=       -0.000000159714 Rises=F Damp=F
 DIIS: error= 2.53D-06 at cycle   9 NSaved=   9.
 NSaved= 9 IEnMin= 9 EnMin= -912.193752922935     IErMin= 9 ErrMin= 2.53D-06
 ErrMax= 2.53D-06  0.00D+00 EMaxC= 1.00D-01 BMatC= 3.88D-09 BMatP= 1.40D-07
 IDIUse=1 WtCom= 1.00D+00 WtEn= 0.00D+00
 Coeff-Com:  0.979D-04-0.118D-03-0.123D-02-0.316D-02-0.956D-02-0.178D-01
 Coeff-Com:  0.699D-01 0.181D+00 0.781D+00
 Coeff:      0.979D-04-0.118D-03-0.123D-02-0.316D-02-0.956D-02-0.178D-01
 Coeff:      0.699D-01 0.181D+00 0.781D+00
 Gap=     0.180 Goal=   None    Shift=    0.000
 RMSDP=3.10D-07 MaxDP=1.10D-05 DE=-1.60D-07 OVMax= 3.35D-05

 Cycle  10  Pass 1  IDiag  1:
 RMSU=  2.18D-07    CP:  9.55D-01  1.43D+00  7.97D-01  6.93D-01  8.09D-01
                    CP:  9.81D-01  1.10D+00  7.75D-01  9.70D-01
 E= -912.193752928374     Delta-E=       -0.000000005439 Rises=F Damp=F
 DIIS: error= 1.02D-06 at cycle  10 NSaved=  10.
 NSaved=10 IEnMin=10 EnMin= -912.193752928374     IErMin=10 ErrMin= 1.02D-06
 ErrMax= 1.02D-06  0.00D+00 EMaxC= 1.00D-01 BMatC= 7.34D-10 BMatP= 3.88D-09
 IDIUse=1 WtCom= 1.00D+00 WtEn= 0.00D+00
 Coeff-Com: -0.135D-04 0.409D-04 0.146D-03 0.245D-03-0.340D-03-0.580D-02
 Coeff-Com: -0.251D-01-0.788D-02 0.300D+00 0.739D+00
 Coeff:     -0.135D-04 0.409D-04 0.146D-03 0.245D-03-0.340D-03-0.580D-02
 Coeff:     -0.251D-01-0.788D-02 0.300D+00 0.739D+00
 Gap=     0.180 Goal=   None    Shift=    0.000
 RMSDP=1.17D-07 MaxDP=5.41D-06 DE=-5.44D-09 OVMax= 1.45D-05

 Cycle  11  Pass 1  IDiag  1:
 RMSU=  8.14D-08    CP:  9.55D-01  1.43D+00  7.97D-01  6.93D-01  8.09D-01
                    CP:  9.83D-01  1.11D+00  7.88D-01  1.06D+00  9.25D-01
 E= -912.193752929326     Delta-E=       -0.000000000952 Rises=F Damp=F
 DIIS: error= 3.75D-07 at cycle  11 NSaved=  11.
 NSaved=11 IEnMin=11 EnMin= -912.193752929326     IErMin=11 ErrMin= 3.75D-07
 ErrMax= 3.75D-07  0.00D+00 EMaxC= 1.00D-01 BMatC= 8.90D-11 BMatP= 7.34D-10
 IDIUse=1 WtCom= 1.00D+00 WtEn= 0.00D+00
 Coeff-Com: -0.196D-04 0.333D-04 0.231D-03 0.562D-03 0.122D-02 0.105D-03
 Coeff-Com: -0.197D-01-0.306D-01 0.160D-01 0.296D+00 0.736D+00
 Coeff:     -0.196D-04 0.333D-04 0.231D-03 0.562D-03 0.122D-02 0.105D-03
 Coeff:     -0.197D-01-0.306D-01 0.160D-01 0.296D+00 0.736D+00
 Gap=     0.180 Goal=   None    Shift=    0.000
 RMSDP=4.16D-08 MaxDP=1.54D-06 DE=-9.52D-10 OVMax= 4.13D-06

 Cycle  12  Pass 1  IDiag  1:
 RMSU=  2.49D-08    CP:  9.55D-01  1.43D+00  7.97D-01  6.93D-01  8.09D-01
                    CP:  9.83D-01  1.11D+00  7.89D-01  1.08D+00  1.03D+00
                    CP:  9.00D-01
 E= -912.193752929431     Delta-E=       -0.000000000105 Rises=F Damp=F
 DIIS: error= 7.55D-08 at cycle  12 NSaved=  12.
 NSaved=12 IEnMin=12 EnMin= -912.193752929431     IErMin=12 ErrMin= 7.55D-08
 ErrMax= 7.55D-08  0.00D+00 EMaxC= 1.00D-01 BMatC= 3.09D-12 BMatP= 8.90D-11
 IDIUse=1 WtCom= 1.00D+00 WtEn= 0.00D+00
 Coeff-Com: -0.407D-05 0.611D-05 0.467D-04 0.123D-03 0.305D-03 0.343D-03
 Coeff-Com: -0.287D-02-0.709D-02-0.997D-02 0.336D-01 0.180D+00 0.805D+00
 Coeff:     -0.407D-05 0.611D-05 0.467D-04 0.123D-03 0.305D-03 0.343D-03
 Coeff:     -0.287D-02-0.709D-02-0.997D-02 0.336D-01 0.180D+00 0.805D+00
 Gap=     0.180 Goal=   None    Shift=    0.000
 RMSDP=9.16D-09 MaxDP=2.94D-07 DE=-1.05D-10 OVMax= 1.24D-06

 Error on total polarization charges =  0.01085
 SCF Done:  E(RM062X) =  -912.193752929     A.U. after   12 cycles
            NFock= 12  Conv=0.92D-08     -V/T= 2.0061
 KE= 9.066916144913D+02 PE=-5.070721892865D+03 EE= 1.781474827367D+03
 Leave Link  502 at Tue Feb  1 12:11:56 2022, MaxMem= 11408506880 cpu:             813.8 elap:              72.1
 (Enter /lustre1/prg/gaussian/bin/G16_C01_Linda9.2_SSE4/g16/l801.exe)
 DoSCS=F DFT=T ScalE2(SS,OS)=  1.000000  1.000000
 Range of M.O.s used for correlation:     1   335
 NBasis=   335 NAE=    69 NBE=    69 NFC=     0 NFV=     0
 NROrb=    335 NOA=    69 NOB=    69 NVA=   266 NVB=   266

 **** Warning!!: The largest alpha MO coefficient is  0.11723800D+02

 Leave Link  801 at Tue Feb  1 12:11:56 2022, MaxMem= 11408506880 cpu:               0.5 elap:               0.0
@@@@@@@@@@@@@@@@@@@@@@@@@@@@@@@@@@@@@@@@@@@@@@@@@@@@@@@@@@@
@    WARNING: REMOTE HOST IDENTIFICATION HAS CHANGED!     @
@@@@@@@@@@@@@@@@@@@@@@@@@@@@@@@@@@@@@@@@@@@@@@@@@@@@@@@@@@@
IT IS POSSIBLE THAT SOMEONE IS DOING SOMETHING NASTY!
Someone could be eavesdropping on you right now (man-in-the-middle attack)!
It is also possible that a host key has just been changed.
The fingerprint for the ECDSA key sent by the remote host is
SHA256:KX001MXmKX1SZsVdeUgJ5vP9GhgFy5i+dR3x9qKC5Vs.
Please contact your system administrator.
Add correct host key in /lustre2/home/toliste/.ssh/known_hosts to get rid of this message.
Offending ECDSA key in /lustre2/home/toliste/.ssh/known_hosts:103
Password authentication is disabled to avoid man-in-the-middle attacks.
Keyboard-interactive authentication is disabled to avoid man-in-the-middle attacks.
@@@@@@@@@@@@@@@@@@@@@@@@@@@@@@@@@@@@@@@@@@@@@@@@@@@@@@@@@@@
@    WARNING: REMOTE HOST IDENTIFICATION HAS CHANGED!     @
@@@@@@@@@@@@@@@@@@@@@@@@@@@@@@@@@@@@@@@@@@@@@@@@@@@@@@@@@@@
IT IS POSSIBLE THAT SOMEONE IS DOING SOMETHING NASTY!
Someone could be eavesdropping on you right now (man-in-the-middle attack)!
It is also possible that a host key has just been changed.
The fingerprint for the ECDSA key sent by the remote host is
SHA256:800ICgCQYNCAEDeUW1SwBVSf1e3qTb6ovHlMpmKSz/k.
Please contact your system administrator.
Add correct host key in /lustre2/home/toliste/.ssh/known_hosts to get rid of this message.
Offending ECDSA key in /lustre2/home/toliste/.ssh/known_hosts:102
Password authentication is disabled to avoid man-in-the-middle attacks.
Keyboard-interactive authentication is disabled to avoid man-in-the-middle attacks.
@@@@@@@@@@@@@@@@@@@@@@@@@@@@@@@@@@@@@@@@@@@@@@@@@@@@@@@@@@@
@    WARNING: REMOTE HOST IDENTIFICATION HAS CHANGED!     @
@@@@@@@@@@@@@@@@@@@@@@@@@@@@@@@@@@@@@@@@@@@@@@@@@@@@@@@@@@@
IT IS POSSIBLE THAT SOMEONE IS DOING SOMETHING NASTY!
Someone could be eavesdropping on you right now (man-in-the-middle attack)!
It is also possible that a host key has just been changed.
The fingerprint for the ECDSA key sent by the remote host is
SHA256:6AWBleXdvALBRr8T/NJHTnwCTqTl+zwRZzrcXBR+Q7A.
@@@@@@@@@@@@@@@@@@@@@@@@@@@@@@@@@@@@@@@@@@@@@@@@@@@@@@@@@@@
Please contact your system administrator.
@    WARNING: REMOTE HOST IDENTIFICATION HAS CHANGED!     @
Add correct host key in /lustre2/home/toliste/.ssh/known_hosts to get rid of this message.
@@@@@@@@@@@@@@@@@@@@@@@@@@@@@@@@@@@@@@@@@@@@@@@@@@@@@@@@@@@
IT IS POSSIBLE THAT SOMEONE IS DOING SOMETHING NASTY!
Offending ECDSA key in /lustre2/home/toliste/.ssh/known_hosts:62
Someone could be eavesdropping on you right now (man-in-the-middle attack)!
Password authentication is disabled to avoid man-in-the-middle attacks.
It is also possible that a host key has just been changed.
Keyboard-interactive authentication is disabled to avoid man-in-the-middle attacks.
The fingerprint for the ECDSA key sent by the remote host is
SHA256:8rjYfDO3JlbDXTefHWc6TrhQ35S4vzq+Jw4FkJeir7c.
Please contact your system administrator.
Add correct host key in /lustre2/home/toliste/.ssh/known_hosts to get rid of this message.
Offending ECDSA key in /lustre2/home/toliste/.ssh/known_hosts:43
Password authentication is disabled to avoid man-in-the-middle attacks.
Keyboard-interactive authentication is disabled to avoid man-in-the-middle attacks.
@@@@@@@@@@@@@@@@@@@@@@@@@@@@@@@@@@@@@@@@@@@@@@@@@@@@@@@@@@@
@    WARNING: REMOTE HOST IDENTIFICATION HAS CHANGED!     @
@@@@@@@@@@@@@@@@@@@@@@@@@@@@@@@@@@@@@@@@@@@@@@@@@@@@@@@@@@@
IT IS POSSIBLE THAT SOMEONE IS DOING SOMETHING NASTY!
Someone could be eavesdropping on you right now (man-in-the-middle attack)!
It is also possible that a host key has just been changed.
The fingerprint for the ECDSA key sent by the remote host is
SHA256:NBZ/p8XhzeMZmTyxxPFJCk4g63xC8UWb2pXQT2ikZ60.
Please contact your system administrator.
Add correct host key in /lustre2/home/toliste/.ssh/known_hosts to get rid of this message.
Offending ECDSA key in /lustre2/home/toliste/.ssh/known_hosts:137
Password authentication is disabled to avoid man-in-the-middle attacks.
Keyboard-interactive authentication is disabled to avoid man-in-the-middle attacks.
@@@@@@@@@@@@@@@@@@@@@@@@@@@@@@@@@@@@@@@@@@@@@@@@@@@@@@@@@@@
@    WARNING: REMOTE HOST IDENTIFICATION HAS CHANGED!     @
@@@@@@@@@@@@@@@@@@@@@@@@@@@@@@@@@@@@@@@@@@@@@@@@@@@@@@@@@@@
IT IS POSSIBLE THAT SOMEONE IS DOING SOMETHING NASTY!
Someone could be eavesdropping on you right now (man-in-the-middle attack)!
It is also possible that a host key has just been changed.
The fingerprint for the ECDSA key sent by the remote host is
SHA256:Ig8LihuAfIQ06SMELJzN8hUGL3IF4hxP55+N5V8AdXA.
Please contact your system administrator.
Add correct host key in /lustre2/home/toliste/.ssh/known_hosts to get rid of this message.
Offending ECDSA key in /lustre2/home/toliste/.ssh/known_hosts:135
Password authentication is disabled to avoid man-in-the-middle attacks.
Keyboard-interactive authentication is disabled to avoid man-in-the-middle attacks.
@@@@@@@@@@@@@@@@@@@@@@@@@@@@@@@@@@@@@@@@@@@@@@@@@@@@@@@@@@@
@    WARNING: REMOTE HOST IDENTIFICATION HAS CHANGED!     @
@@@@@@@@@@@@@@@@@@@@@@@@@@@@@@@@@@@@@@@@@@@@@@@@@@@@@@@@@@@
IT IS POSSIBLE THAT SOMEONE IS DOING SOMETHING NASTY!
Someone could be eavesdropping on you right now (man-in-the-middle attack)!
It is also possible that a host key has just been changed.
The fingerprint for the ECDSA key sent by the remote host is
SHA256:riRvS+NSPMnm0eRsRLnP85zCpheP3PvpkZYo1uiC2BQ.
Please contact your system administrator.
Add correct host key in /lustre2/home/toliste/.ssh/known_hosts to get rid of this message.
Offending ECDSA key in /lustre2/home/toliste/.ssh/known_hosts:138
Password authentication is disabled to avoid man-in-the-middle attacks.
Keyboard-interactive authentication is disabled to avoid man-in-the-middle attacks.
 (Enter /lustre1/prg/gaussian/bin/G16_C01_Linda9.2_SSE4/g16/linda-exe/l1101.exel)
 Using compressed storage, NAtomX=    31.
 Will process     32 centers per pass.
 Leave Link 1101 at Tue Feb  1 12:12:03 2022, MaxMem= 11408506880 cpu:              50.9 elap:               4.5
 (Enter /lustre1/prg/gaussian/bin/G16_C01_Linda9.2_SSE4/g16/l1102.exe)
 Symmetrizing basis deriv contribution to polar:
 IMax=3 JMax=2 DiffMx= 0.00D+00
 Leave Link 1102 at Tue Feb  1 12:12:03 2022, MaxMem= 11408506880 cpu:               1.4 elap:               0.1
@@@@@@@@@@@@@@@@@@@@@@@@@@@@@@@@@@@@@@@@@@@@@@@@@@@@@@@@@@@
@    WARNING: REMOTE HOST IDENTIFICATION HAS CHANGED!     @
@@@@@@@@@@@@@@@@@@@@@@@@@@@@@@@@@@@@@@@@@@@@@@@@@@@@@@@@@@@
IT IS POSSIBLE THAT SOMEONE IS DOING SOMETHING NASTY!
Someone could be eavesdropping on you right now (man-in-the-middle attack)!
It is also possible that a host key has just been changed.
The fingerprint for the ECDSA key sent by the remote host is
SHA256:8rjYfDO3JlbDXTefHWc6TrhQ35S4vzq+Jw4FkJeir7c.
Please contact your system administrator.
Add correct host key in /lustre2/home/toliste/.ssh/known_hosts to get rid of this message.
Offending ECDSA key in /lustre2/home/toliste/.ssh/known_hosts:43
Password authentication is disabled to avoid man-in-the-middle attacks.
Keyboard-interactive authentication is disabled to avoid man-in-the-middle attacks.
@@@@@@@@@@@@@@@@@@@@@@@@@@@@@@@@@@@@@@@@@@@@@@@@@@@@@@@@@@@
@    WARNING: REMOTE HOST IDENTIFICATION HAS CHANGED!     @
@@@@@@@@@@@@@@@@@@@@@@@@@@@@@@@@@@@@@@@@@@@@@@@@@@@@@@@@@@@
IT IS POSSIBLE THAT SOMEONE IS DOING SOMETHING NASTY!
Someone could be eavesdropping on you right now (man-in-the-middle attack)!
It is also possible that a host key has just been changed.
The fingerprint for the ECDSA key sent by the remote host is
SHA256:riRvS+NSPMnm0eRsRLnP85zCpheP3PvpkZYo1uiC2BQ.
Please contact your system administrator.
Add correct host key in /lustre2/home/toliste/.ssh/known_hosts to get rid of this message.
Offending ECDSA key in /lustre2/home/toliste/.ssh/known_hosts:138
Password authentication is disabled to avoid man-in-the-middle attacks.
Keyboard-interactive authentication is disabled to avoid man-in-the-middle attacks.
@@@@@@@@@@@@@@@@@@@@@@@@@@@@@@@@@@@@@@@@@@@@@@@@@@@@@@@@@@@
@    WARNING: REMOTE HOST IDENTIFICATION HAS CHANGED!     @
@@@@@@@@@@@@@@@@@@@@@@@@@@@@@@@@@@@@@@@@@@@@@@@@@@@@@@@@@@@
IT IS POSSIBLE THAT SOMEONE IS DOING SOMETHING NASTY!
Someone could be eavesdropping on you right now (man-in-the-middle attack)!
It is also possible that a host key has just been changed.
The fingerprint for the ECDSA key sent by the remote host is
SHA256:KX001MXmKX1SZsVdeUgJ5vP9GhgFy5i+dR3x9qKC5Vs.
Please contact your system administrator.
Add correct host key in /lustre2/home/toliste/.ssh/known_hosts to get rid of this message.
Offending ECDSA key in /lustre2/home/toliste/.ssh/known_hosts:103
Password authentication is disabled to avoid man-in-the-middle attacks.
Keyboard-interactive authentication is disabled to avoid man-in-the-middle attacks.
[...]
 01248,-0.00003207,-0.00000138,0.00017085,-0.00000812,-0.00018093,0.000
 04048,0.00002982,-0.00003302,0.00003367,-0.00004188,-0.00003001,0.0055
 1320,0.00165646,0.00197535,-0.00070157,0.01350403,-0.00786602,-0.00171
 399,-0.00191881,-0.00120997,0.02267366,0.15142206,-0.19421494,-0.02703
 559,-0.16519597,0.19749384,0.00024567,-0.00002821,-0.00009791,-0.00009
 717,0.00012044,-0.00002574,-0.00005693,0.00003438,-0.00009287,-0.00001
 523,-0.00006861,0.00000390,-0.00015802,0.00019155,0.00010866,-0.000016
 93,-0.00000789,-0.00000227,0.00010019,-0.00008197,0.00001417,-0.000030
 59,-0.00015599,0.00012995,0.00010278,-0.00024971,0.00024841,-0.0002112
 3,0.00077624,-0.00100954,0.00007802,-0.00015904,0.00002064,0.00006420,
 -0.00000731,0.00018989,0.00001448,0.00000837,0.00000024,-0.00020486,0.
 00010869,0.00018897,0.00000401,0.00000508,0.00001974,-0.00046420,-0.00
 001318,-0.00046060,0.00006829,-0.00009659,-0.00000886,0.00006935,0.000
 02058,0.00043530,-0.00008204,-0.00005333,0.00004128,-0.00006778,0.0000
 7098,0.00003563,-0.01218218,0.02064606,-0.01663510,-0.04226719,0.00890
 982,0.03031861,-0.00086561,0.00125886,0.00525728,-0.22832593,0.1550406
 8,-0.01806286,0.00603719,-0.00424041,0.00210288,0.60202766,-0.00009187
 ,0.00001236,-0.00011627,0.00009758,0.00012940,-0.00014153,-0.00012849,
 -0.00009051,-0.00006241,0.00001687,0.00006601,-0.00003011,-0.00015002,
 -0.00034493,0.00006158,0.00000449,0.00000497,-0.00000730,0.00046490,0.
 00033395,0.00079149,0.00019364,0.00030282,-0.00036321,-0.00077493,0.00
 029451,-0.00029920,0.00051508,-0.00314172,0.00073736,-0.00015850,0.000
 13027,0.00008480,-0.00005965,-0.00008165,-0.00015681,-0.00003129,0.000
 06614,0.00001163,0.00010185,-0.00035244,-0.00016655,-0.00000660,0.0000
 0505,0.00000194,0.00062380,0.00029774,0.00064395,-0.00037780,0.0003274
 9,0.00011875,-0.00008109,0.00032986,-0.00080589,0.00002084,-0.00000053
 ,0.00002313,0.00001759,-0.00000032,0.00002449,0.02221666,-0.05334202,0
 .02843013,0.04616483,0.02920326,-0.05579778,0.00081715,0.00358176,0.00
 281890,0.10391742,-0.21733378,0.05913352,0.01598645,-0.00920460,0.0004
 0607,-0.15825871,0.49617263,-0.00009051,0.00001457,0.00018875,-0.00002
 146,-0.00013006,0.00008334,0.00015533,0.00001251,0.00008047,-0.0000083
 6,-0.00000856,0.00001543,0.00018788,0.00015206,-0.00012447,0.00001270,
 0.00000406,0.00000882,-0.00031907,-0.00007437,-0.00059584,-0.00002740,
 -0.00012632,0.00010844,0.00044360,-0.00000805,0.00025221,-0.00094114,0
 .00099071,-0.00076588,0.00002314,0.00008029,-0.00010886,-0.00004040,0.
 00003650,-0.00001708,0.00000951,-0.00006724,-0.00001747,0.00008440,0.0
 0022646,-0.00005293,0.00000281,-0.00000617,-0.00001188,-0.00012217,-0.
 00008861,-0.00001620,0.00013352,-0.00019205,-0.00000711,0.00022847,-0.
 00025956,0.00028360,0.00004032,0.00003988,-0.00005357,0.00003189,-0.00
 005248,-0.00005110,-0.01665763,0.02649828,-0.02066110,-0.00448342,-0.0
 2664803,0.03517854,0.00558612,0.00270377,0.00109931,0.02789761,0.02110
 765,-0.10635426,-0.01605473,0.01531184,0.00208897,-0.20697332,-0.20611
 796,0.49194472,0.00025096,-0.00002644,-0.00002622,-0.00000432,-0.00046
 906,0.00009121,-0.00002181,0.00005403,-0.00011776,-0.00001539,0.000028
 82,0.00001537,-0.00008908,0.00019333,0.00010987,-0.00001226,-0.0000049
 5,0.00000181,-0.00010217,-0.00009372,-0.00038269,-0.00008260,-0.000191
 53,0.00024918,0.00006346,0.00000629,0.00005771,0.00216668,0.00593660,-
 0.00182468,0.00034607,-0.00040525,-0.00026518,0.00035557,0.00009130,0.
 00048349,0.00005121,0.00000900,-0.00000452,-0.00044137,0.00019195,0.00
 050529,0.00000842,-0.00001276,0.00001002,-0.00103041,-0.00018216,-0.00
 137089,0.00030534,-0.00011992,0.00017816,0.00005845,-0.00056749,0.0019
 8227,-0.00006982,-0.00004043,0.00001914,-0.00006007,0.00005100,0.00001
 514,-0.04349490,0.04453374,-0.00337318,-0.02292264,-0.01860094,0.02914
 288,-0.00018035,-0.00082098,0.00031546,0.04158995,0.00132391,-0.026842
 58,-0.00124891,0.00530483,0.00157259,-0.11652354,0.03163932,0.01033706
 ,0.58962311,0.00023860,-0.00001779,0.00024403,0.00055620,0.00029530,0.
 00016615,0.00003322,-0.00000069,-0.00027871,0.00003031,-0.00010319,0.0
 0003441,-0.00009899,0.00023507,0.00010222,0.00000711,-0.00000787,0.000
 00324,0.00006417,-0.00013496,-0.00004094,-0.00008946,-0.00021447,0.000
 04878,0.00033059,0.00032408,-0.00129436,0.00658265,-0.00005049,0.00287
 677,0.00005462,-0.00035877,-0.00011053,-0.00001845,-0.00001062,0.00027
 421,0.00001877,0.00004880,-0.00000807,-0.00016175,0.00009230,0.0000859
 2,0.00000708,0.00001138,0.00001190,-0.00078384,0.00009986,-0.00061500,
 0.00016298,-0.00017746,-0.00007964,-0.00023309,-0.00014230,0.00142810,
 -0.00005549,-0.00000532,-0.00004103,-0.00005534,0.00002025,-0.00003779
 ,0.00647442,0.02741325,-0.02603914,-0.01825088,-0.01581188,0.02156093,
 -0.00081819,-0.00017002,-0.00009518,0.03774714,-0.03460784,0.01070012,
 0.00507076,0.00064510,0.00237341,-0.01821673,-0.21847669,0.15546831,-0
 .19640615,0.53533345,-0.00019554,0.00002052,0.00008549,-0.00027303,-0.
 00052118,-0.00005450,0.00023868,0.00001278,0.00028495,0.00001759,0.000
 18801,-0.00001794,0.00018286,-0.00043978,-0.00016219,0.00001663,0.0000
 0561,-0.00000252,0.00004109,0.00041325,0.00037136,0.00012677,0.0002952
 2,-0.00030234,0.00060831,-0.00062573,-0.00031486,-0.00096510,0.0014807
 3,0.00555723,-0.00003134,-0.00011409,0.00033771,-0.00019667,-0.0000491
 4,-0.00030281,-0.00001886,0.00009497,0.00001554,0.00016678,-0.00038074
 ,-0.00021221,-0.00000143,-0.00000111,-0.00001285,0.00041660,0.00032262
 ,0.00061181,-0.00016630,0.00024472,-0.00003333,-0.00045466,0.00090529,
 -0.00085422,0.00007069,0.00004019,-0.00003705,0.00006305,-0.00005689,-
 0.00003167,0.03192508,-0.05081887,0.03268152,0.02949922,0.02259236,-0.
 04976954,0.00027339,-0.00008571,-0.00106986,-0.06154654,0.03873461,0.0
 1864961,0.00198294,0.00212377,0.00415148,0.05631294,0.11576588,-0.2169
 4653,-0.16977696,-0.21060867,0.46470299,0.00014569,-0.00001504,-0.0001
 0644,-0.00002339,-0.00006671,-0.00005279,-0.00009399,0.00000752,-0.000
 10944,-0.00000632,0.00000369,-0.00000802,-0.00016465,0.00002549,0.0001
 0104,-0.00000952,-0.00000107,-0.00000360,0.00016717,0.00000473,0.00011
 410,-0.00000025,-0.00002863,0.00001446,-0.00026737,-0.00001760,0.00016
 356,0.00009609,0.00097294,-0.00092987,0.00003408,-0.00004190,-0.000040
 98,0.00010302,0.00000575,0.00014751,0.00000268,0.00000793,0.00000368,-
 0.00017070,-0.00000095,0.00013986,0.00000073,-0.00000120,0.00001176,-0
 .00011730,-0.00000798,-0.00023603,-0.00000410,-0.00001498,-0.00002024,
 0.00002416,-0.00010412,0.00024939,-0.00004831,-0.00003683,0.00003459,-
 0.00004156,0.00004588,0.00003163,-0.00086028,0.00106497,0.00577228,-0.
 00025522,-0.00079570,0.00013329,-0.00027822,-0.00024131,-0.00042030,0.
 00293588,0.00100793,0.00264406,0.00014911,-0.00020983,0.00010164,0.005
 71696,-0.00360903,0.00199894,-0.19751889,0.14940613,-0.01368673,0.2026
 4932,-0.00001851,0.00000099,0.00003394,0.00003137,-0.00001269,0.000005
 67,0.00001997,0.00001139,-0.00001092,0.00000253,-0.00000116,0.00000061
 ,0.00000740,0.00002409,-0.00001290,0.00000313,0.00000016,0.00000099,-0
 .00000583,-0.00002532,-0.00006718,-0.00001919,-0.00003023,-0.00000174,
 0.00004789,-0.00008489,-0.00001742,-0.00008558,0.00029578,0.00008054,0
 .00000397,-0.00001629,-0.00004227,0.00001442,0.00001486,0.00000704,0.0
 0000059,-0.00000325,-0.00000271,-0.00000813,0.00001451,0.00000253,0.00
 000105,-0.00000132,-0.00000334,0.00000779,-0.00003320,-0.00003441,0.00
 002267,-0.00001079,0.00001164,0.00005240,-0.00005189,0.00005374,0.0000
 0846,0.00000765,-0.00001068,0.00000624,-0.00000981,-0.00000898,0.00096
 688,0.00383743,0.00271020,-0.00089167,-0.00025229,0.00010382,-0.000223
 09,-0.00039068,-0.00047120,0.00071916,0.00061755,0.00565846,0.00076811
 ,-0.00061387,-0.00001878,0.01597432,-0.00922443,-0.00024432,0.14954172
 ,-0.19554243,0.02663358,-0.16225904,0.19943980,-0.00003565,0.00000400,
 0.00005977,0.00009479,0.00010486,0.00003529,0.00003528,0.00000344,-0.0
 0000830,0.00000861,-0.00002276,0.00000612,0.00003397,0.00003433,-0.000
 02027,0.00000475,-0.00000016,0.00000165,-0.00002436,-0.00006072,-0.000
 08105,-0.00000899,-0.00001778,0.00000105,0.00015136,0.00001708,-0.0001
 6681,0.00061115,-0.00051992,0.00039415,-0.00001223,0.00000285,-0.00003
 906,-0.00000204,0.00000408,-0.00001033,-0.00000091,-0.00000296,-0.0000
 0360,0.00001333,0.00001273,-0.00002682,0.00000101,0.00000063,-0.000005
 22,0.00003215,-0.00004820,0.00000349,0.00001319,-0.00000316,0.00001212
 ,0.00000285,-0.00002995,0.00002993,0.00001335,0.00001363,-0.00001647,0
 .00001110,-0.00001680,-0.00001485,0.00508084,0.00245314,0.00102133,0.0
 0013800,0.00009690,-0.00118184,-0.00040182,-0.00046660,-0.00035386,0.0
 0306631,0.00548783,0.00002575,-0.00083292,0.00072745,-0.00004213,-0.01
 608589,0.01551832,0.00236322,-0.01423020,0.02642130,-0.05216729,0.0116
 0223,-0.03183652,0.04691181,-0.00038231,0.00005746,-0.00010000,-0.0023
 8917,-0.00088750,-0.00052254,0.00067237,0.00001006,0.00149693,-0.00007
 451,0.00024994,-0.00007944,0.00086499,-0.00070534,-0.00084101,0.000004
 41,-0.00000645,-0.00000361,-0.00059797,0.00055429,0.00000792,0.0002242
 2,0.00050229,-0.00045408,0.00260171,-0.00039915,0.00393227,-0.03125753
 ,0.01531505,0.00835968,-0.00033288,-0.00042719,0.00168068,-0.00123393,
 0.00000125,-0.00130296,-0.00000725,-0.00003882,0.00002005,0.00127332,0
 .00023259,-0.00095019,-0.00000350,-0.00003396,-0.00000555,0.00062387,0
 .00071595,0.00169138,0.00004041,-0.00034464,0.00011451,-0.00078704,0.0
 0248300,-0.00509593,0.00011869,0.00003846,-0.00001958,0.00010983,-0.00
 006091,-0.00001232,-0.20389940,0.09855985,0.01730589,0.03949882,0.0379
 9561,-0.05570526,0.00257566,0.00013385,0.00278235,-0.06267781,0.025153
 36,0.01894944,-0.00120707,0.00030956,-0.00012277,0.02429828,-0.0658798
 3,0.04742201,-0.25619647,0.04368260,0.10901027,-0.01134687,-0.00193918
 ,0.01410984,0.55067341,0.00014644,-0.00004041,-0.00043624,-0.00035625,
 -0.00043014,0.00000847,-0.00036845,0.00002701,-0.00013826,-0.00006092,
 0.00000907,0.00000009,-0.00023670,0.00018287,0.00029277,-0.00003985,-0
 .00001690,-0.00000941,0.00009745,0.00011454,0.00025296,-0.00004465,-0.
 00024803,0.00025820,-0.00220233,0.00040647,0.00049175,0.00289847,0.004
 50214,-0.00502361,0.00047859,-0.00003541,-0.00050488,0.00078408,0.0001
 9709,0.00059364,0.00004228,0.00004233,0.00003150,-0.00066913,-0.000211
 14,0.00081788,-0.00000083,-0.00000396,0.00001767,-0.00057632,-0.000693
 43,-0.00190550,0.00062295,0.00003238,-0.00091013,-0.00044049,-0.001278
 12,0.00240690,-0.00006501,-0.00008076,0.00011526,-0.00004596,0.0000913
 9,0.00010326,0.14443016,-0.20423535,0.02158574,0.00126969,-0.03512462,
 0.03894647,0.00076245,0.00049919,0.00512252,0.02623456,-0.01544797,-0.
 01213522,0.00029427,-0.00024232,-0.00074000,-0.02812409,0.02862791,0.0
 0233349,-0.00550014,-0.10760204,0.04220575,0.01758197,0.00381680,-0.01
 385560,-0.14443552,0.52482961,-0.00061515,0.00006797,0.00057514,0.0004
 3238,0.00095859,0.00059215,0.00050397,-0.00006489,0.00047947,0.0000357
 9,-0.00015036,0.00008333,0.00091490,0.00004449,-0.00054258,0.00003038,
 0.00001501,0.00002501,-0.00100510,-0.00026223,-0.00091920,0.00008890,0
 .00012063,0.00014516,0.00250119,0.00003048,-0.00185886,0.01313151,-0.0
 1360231,0.00860293,-0.00041303,0.00052396,0.00095914,-0.00088679,0.000
 05237,-0.00118884,0.00004155,-0.00022006,0.00001304,0.00161996,0.00046
 592,-0.00079475,-0.00002246,-0.00001295,-0.00002617,0.00056695,-0.0012
 2972,-0.00068029,0.00077319,-0.00097567,-0.00170274,-0.00037546,-0.000
 16712,-0.00269774,0.00019488,0.00016512,-0.00016615,0.00018487,-0.0002
 1099,-0.00015361,-0.01705347,0.05396970,-0.10610872,-0.02527638,0.0107
 2083,0.01833595,0.00221628,0.00548054,-0.00036563,0.01927988,-0.012073
 88,-0.01035876,-0.00009387,-0.00082177,-0.00024191,0.01256792,0.030801
 78,-0.03082090,0.15577127,0.00579877,-0.18995277,-0.00417865,0.0014384
 6,0.00545588,-0.18679147,-0.23781449,0.50236876,-0.00018626,0.00001808
 ,-0.00012196,0.00013949,0.00014695,0.00002846,-0.00011325,-0.00001609,
 -0.00009503,0.00000107,-0.00002591,-0.00000252,-0.00007117,0.00002053,
 0.00006940,-0.00000103,0.00000315,0.00000017,0.00007909,-0.00002735,0.
 00005281,0.00001629,0.00000791,0.00001068,-0.00037533,0.00000427,0.000
 01579,0.00026522,-0.00037930,-0.00269326,-0.00001049,-0.00002362,0.000
 07927,0.00003629,0.00001865,-0.00016523,-0.00000965,0.00001100,0.00000
 112,0.00003886,-0.00005836,-0.00004573,0.00000309,0.00000041,-0.000020
 55,0.00044567,0.00001076,0.00044695,0.00001599,-0.00005223,-0.00010292
 ,-0.00011730,-0.00004089,-0.00023278,0.00004477,0.00001387,0.00001473,
 0.00004392,-0.00002924,0.00001665,0.00405923,0.01521597,-0.01398863,-0
 .00147093,0.00478281,0.00173438,0.00024306,0.00086799,-0.00072563,-0.0
 0115912,0.00011034,0.00006828,-0.00014524,-0.00039811,-0.00038766,-0.0
 0167744,0.00247790,0.00503078,0.00289139,-0.01751892,0.01682380,-0.000
 21089,-0.00129190,-0.00200570,-0.05437392,-0.01414484,0.02401639,0.051
 64610,0.00025813,-0.00001540,-0.00002497,0.00018252,0.00009601,-0.0000
 5570,-0.00016954,-0.00002894,-0.00024950,0.00000155,-0.00001937,-0.000
 00659,-0.00025240,0.00001333,0.00016168,-0.00000563,0.00000062,-0.0000
 0438,0.00022279,-0.00003042,0.00022594,-0.00001709,-0.00001474,-0.0000
 2476,-0.00053687,0.00016116,-0.00014237,-0.00137842,-0.00099930,-0.000
 42071,-0.00048392,0.00019219,0.00002487,-0.00018387,-0.00006718,-0.000
 06440,-0.00004283,-0.00004125,-0.00000662,0.00006309,0.00010198,-0.000
 21537,-0.00000585,0.00000864,0.00002825,0.00049102,0.00015145,0.000357
 47,-0.00034033,-0.00054652,-0.00041791,0.00062184,-0.00013905,-0.00088
 958,-0.00008566,-0.00004736,0.00003235,-0.00008482,0.00007091,0.000026
 97,-0.00435632,-0.00941731,0.01519900,0.00528116,0.00051254,0.00148040
 ,-0.00012890,-0.00046581,0.00086334,0.00011949,-0.00016573,-0.00080919
 ,-0.00038552,-0.00039188,-0.00034879,0.00223943,0.00357222,0.00191568,
 0.00200542,0.00438536,-0.00175777,-0.00153781,-0.00107915,-0.00169935,
 -0.01278253,-0.19750146,0.15130191,0.01120896,0.20165347,0.00009903,-0
 .00001101,-0.00010557,0.00009371,0.00004361,-0.00005511,-0.00015756,-0
 .00000210,-0.00016371,-0.00000326,-0.00001152,-0.00000756,-0.00019484,
 0.00002034,0.00014649,-0.00000833,0.00000022,-0.00000389,0.00018614,-0
 .00002681,0.00020937,0.00000680,-0.00000727,0.00001144,-0.00066244,0.0
 0013853,0.00001443,-0.00016610,-0.00195727,-0.00165419,-0.00022175,0.0
 0031680,-0.00012093,0.00016888,0.00001522,-0.00000557,-0.00001097,0.00
 000261,0.00000991,-0.00000326,-0.00013491,-0.00000478,-0.00000847,0.00
 000204,0.00000996,0.00013700,-0.00073929,-0.00069034,0.00008008,-0.000
 35692,-0.00040858,0.00043713,-0.00035639,-0.00012765,-0.00003925,-0.00
 003107,0.00003861,-0.00003931,0.00004067,0.00003226,0.00140424,0.00079
 344,0.00154659,0.00120477,0.00205707,0.00363228,0.00021361,0.00009190,
 0.00011715,0.00001678,-0.00081925,-0.00009918,-0.00037013,-0.00033966,
 -0.00048677,0.00536135,0.00153439,0.00196444,-0.00054809,0.01362668,-0
 .00767584,-0.00173123,-0.00194360,-0.00116852,0.02348418,0.15175109,-0
 .18975078,-0.02863854,-0.16430256,0.19534103,0.00002716,-0.00000383,-0
 .00007739,0.00001183,0.00003454,0.00000308,-0.00006845,-0.00000118,-0.
 00003760,-0.00000079,-0.00000613,-0.00000051,-0.00005755,-0.00000250,0
 .00005675,-0.00000635,-0.00000010,-0.00000213,0.00005824,-0.00003482,0
 .00009104,0.00002046,0.00002806,0.00002390,-0.00015617,-0.00000978,-0.
 00003819,-0.00009997,-0.00033736,-0.00045983,-0.00000867,0.00005854,0.
 00000704,0.00002558,-0.00000390,0.00001162,-0.00000163,-0.00000984,0.0
 0000121,-0.00002781,0.00000530,0.00002542,-0.00000039,0.00000028,0.000
 00276,0.00002666,-0.00002159,-0.00000706,-0.00001639,-0.00000181,-0.00
 001196,0.00001483,-0.00001853,-0.00005409,-0.00001437,-0.00001462,0.00
 002163,-0.00001144,0.00001797,0.00001981,0.00007399,-0.00001498,-0.000
 66860,-0.00003677,0.00548377,0.00081099,-0.00069355,-0.00019808,0.0006
 4971,-0.01126816,-0.00252468,0.01438687,-0.00022886,-0.00157205,-0.001
 61758,-0.23558019,0.00433144,0.14611353,0.00230438,0.00223992,-0.00046
 353,-0.00060707,-0.00145796,-0.00138338,0.00318765,0.00166810,0.001839
 66,-0.00004750,0.00008292,-0.00009016,0.24318131,-0.00001935,0.0000023
 7,-0.00002922,0.00002477,0.00005172,-0.00002833,-0.00004481,-0.0000093
 4,-0.00003435,0.00000093,-0.00000802,-0.00000365,-0.00004640,0.0000038
 3,0.00003404,-0.00000050,0.00000031,-0.00000138,0.00006297,-0.00000700
 ,0.00010132,-0.00000372,-0.00000411,-0.00002230,-0.00021878,0.00000151
 ,-0.00000659,-0.00033654,-0.00027492,-0.00045137,-0.00003417,0.0000502
 3,0.00001577,-0.00001814,-0.00000634,-0.00004915,-0.00000413,-0.000007
 58,-0.00000051,0.00003932,0.00000218,-0.00003291,-0.00000110,0.0000003
 6,-0.00000066,0.00008194,-0.00001134,0.00008374,-0.00002259,-0.0000011
 4,-0.00001002,0.00005315,0.00000565,-0.00020781,0.00000359,-0.00000055
 ,0.00000550,0.00000297,0.00000090,0.00000564,0.00026449,-0.00128927,0.
 00034304,0.00494448,-0.00012291,0.00330004,0.00081666,0.00005954,-0.00
 072617,0.01735129,0.00456321,-0.01343323,-0.00195410,-0.00068210,-0.00
 171806,0.00435630,-0.05186471,0.00712776,-0.01746933,0.00453062,0.0133
 7980,-0.00114519,-0.00069731,-0.00232210,0.00194585,-0.00018674,0.0056
 4990,-0.00091277,0.00005097,0.00060501,-0.00771708,0.04584997,-0.00007
 732,0.00000825,-0.00001449,0.00001353,0.00006877,-0.00000668,-0.000013
 98,-0.00000348,0.00001607,0.00000205,-0.00001214,-0.00000089,0.0000157
 9,0.00000658,-0.00000362,0.00000122,0.00000027,-0.00000024,0.00000352,
 -0.00003102,0.00004826,-0.00000306,0.00000313,-0.00001286,-0.00010058,
 -0.00002239,-0.00001091,-0.00045632,-0.00044596,-0.00035171,0.00000083
 ,0.00005098,0.00001044,-0.00000843,0.00000194,-0.00007254,-0.00000076,
 -0.00000873,-0.00000096,0.00006146,-0.00000444,-0.00003229,-0.00000045
 ,0.00000042,-0.00000625,0.00007934,-0.00004906,0.00007299,0.00001594,0
 .00003018,0.00002627,0.00000905,-0.00000861,-0.00017644,0.00002157,0.0
 0000987,-0.00000223,0.00001969,-0.00001512,-0.00000126,-0.00067058,-0.
 00003213,-0.00026400,0.00100561,0.00316329,0.00390198,-0.00025581,0.00
 003531,0.00009443,-0.00395984,0.00165099,0.00590741,-0.00126779,-0.001
 95025,-0.00140994,0.14609721,0.00715691,-0.15905508,0.01790503,-0.0019
 7619,-0.00752939,-0.00173971,-0.00201422,-0.00101515,0.00163930,0.0061
 3794,0.00069447,0.00081648,-0.00017734,-0.00054499,-0.15915299,-0.0115
 7375,0.15973959\\-0.00000036,0.00000160,-0.00000052,0.,0.00000140,-0.0
 0000056,0.00000008,0.00000172,-0.00000073,-0.00000003,0.00000236,-0.00
 000096,0.00000035,0.00000116,-0.00000067,0.00000049,0.00000133,-0.0000
 0080,0.00000039,0.00000048,-0.00000034,0.00000053,-0.00000009,-0.00000
 022,0.00000010,0.00000059,-0.00000029,-0.00000003,0.00000005,-0.000000
 02,-0.00000049,0.00000110,-0.00000021,-0.00000078,0.00000111,-0.000000
 10,-0.00000098,0.00000169,-0.00000023,-0.00000078,0.00000035,0.0000001
 8,-0.00000099,0.00000026,0.00000034,-0.00000050,-0.00000013,0.00000030
 ,-0.00000039,-0.00000077,0.00000050,-0.00000031,0.00000030,0.00000008,
 -0.00000099,0.00000230,-0.00000046,0.00000016,0.00000217,-0.00000093,0
 .00000020,-0.00000081,0.00000023,0.00000092,-0.00000114,0.00000001,0.0
 0000133,-0.00000074,-0.00000034,0.00000111,-0.00000190,0.00000025,0.00
 000167,-0.00000214,0.00000009,0.00000057,-0.00000236,0.00000071,-0.000
 00017,-0.00000208,0.00000095,-0.00000057,-0.00000246,0.00000129,-0.000
 00035,-0.00000130,0.00000070,-0.00000091,-0.00000105,0.00000085,0.0000
 0072,-0.00000299,0.00000090\\\@
 The archive entry for this job was punched.


 ... UNTIL SCIENCE IS MIXED WITH EMOTION AND APPEALS TO THE HEART AND
 IMAGINATION , IT IS LIKE DEAD INORGANIC MATTER; AND WHEN IT IS SO MIXED
 AND SO TRANSFORMED IT IS LITERATURE.

                                  -- JOHN BURROUGHS
 Job cpu time:       0 days  0 hours  0 minutes 24.6 seconds.
 Elapsed time:       0 days  0 hours 10 minutes  6.3 seconds.
 File lengths (MBytes):  RWF=    457 Int=      0 D2E=      0 Chk=     26 Scr=      1
 Normal termination of Gaussian 16 at Tue Feb  1 12:35:15 2022.
