 Entering Gaussian System, Link 0=/lustre1/prg/gaussian/bin/G16_C01_Linda9.2_SSE4/g16/g16
 Initial command:
 /lustre1/prg/gaussian/bin/G16_C01_Linda9.2_SSE4/g16/l1.exe "/lustre1/prg/webmo/data/webmo20/toliste/4402/scratch/Gau-1406684.inp" -scrdir="/lustre1/prg/webmo/data/webmo20/toliste/4402/scratch/"
 Default is to use a total of  12 processors:
                               12 via shared-memory
                                1 via Linda
 Entering Link 1 = /lustre1/prg/gaussian/bin/G16_C01_Linda9.2_SSE4/g16/l1.exe PID=   1406685.
  
 Copyright (c) 1988-2019, Gaussian, Inc.  All Rights Reserved.
  
 This is part of the Gaussian(R) 16 program.  It is based on
 the Gaussian(R) 09 system (copyright 2009, Gaussian, Inc.),
 the Gaussian(R) 03 system (copyright 2003, Gaussian, Inc.),
 the Gaussian(R) 98 system (copyright 1998, Gaussian, Inc.),
 the Gaussian(R) 94 system (copyright 1995, Gaussian, Inc.),
 the Gaussian 92(TM) system (copyright 1992, Gaussian, Inc.),
 the Gaussian 90(TM) system (copyright 1990, Gaussian, Inc.),
 the Gaussian 88(TM) system (copyright 1988, Gaussian, Inc.),
 the Gaussian 86(TM) system (copyright 1986, Carnegie Mellon
 University), and the Gaussian 82(TM) system (copyright 1983,
 Carnegie Mellon University). Gaussian is a federally registered
 trademark of Gaussian, Inc.
  
 This software contains proprietary and confidential information,
 including trade secrets, belonging to Gaussian, Inc.
  
 This software is provided under written license and may be
 used, copied, transmitted, or stored only in accord with that
 written license.
  
 The following legend is applicable only to US Government
 contracts under FAR:
  
                    RESTRICTED RIGHTS LEGEND
  
 Use, reproduction and disclosure by the US Government is
 subject to restrictions as set forth in subparagraphs (a)
 and (c) of the Commercial Computer Software - Restricted
 Rights clause in FAR 52.227-19.
  
 Gaussian, Inc.
 340 Quinnipiac St., Bldg. 40, Wallingford CT 06492
  
  
 ---------------------------------------------------------------
 Warning -- This program may not be used in any manner that
 competes with the business of Gaussian, Inc. or will provide
 assistance to any competitor of Gaussian, Inc.  The licensee
 of this program is prohibited from giving any competitor of
 Gaussian, Inc. access to this program.  By using this program,
 the user acknowledges that Gaussian, Inc. is engaged in the
 business of creating and licensing software in the field of
 computational chemistry and represents and warrants to the
 licensee that it is not a competitor of Gaussian, Inc. and that
 it will not use this program in any manner prohibited above.
 ---------------------------------------------------------------
  

 Cite this work as:
 Gaussian 16, Revision C.01,
 M. J. Frisch, G. W. Trucks, H. B. Schlegel, G. E. Scuseria, 
 M. A. Robb, J. R. Cheeseman, G. Scalmani, V. Barone, 
 G. A. Petersson, H. Nakatsuji, X. Li, M. Caricato, A. V. Marenich, 
 J. Bloino, B. G. Janesko, R. Gomperts, B. Mennucci, H. P. Hratchian, 
 J. V. Ortiz, A. F. Izmaylov, J. L. Sonnenberg, D. Williams-Young, 
 F. Ding, F. Lipparini, F. Egidi, J. Goings, B. Peng, A. Petrone, 
 T. Henderson, D. Ranasinghe, V. G. Zakrzewski, J. Gao, N. Rega, 
 G. Zheng, W. Liang, M. Hada, M. Ehara, K. Toyota, R. Fukuda, 
 J. Hasegawa, M. Ishida, T. Nakajima, Y. Honda, O. Kitao, H. Nakai, 
 T. Vreven, K. Throssell, J. A. Montgomery, Jr., J. E. Peralta, 
 F. Ogliaro, M. J. Bearpark, J. J. Heyd, E. N. Brothers, K. N. Kudin, 
 V. N. Staroverov, T. A. Keith, R. Kobayashi, J. Normand, 
 K. Raghavachari, A. P. Rendell, J. C. Burant, S. S. Iyengar, 
 J. Tomasi, M. Cossi, J. M. Millam, M. Klene, C. Adamo, R. Cammi, 
 J. W. Ochterski, R. L. Martin, K. Morokuma, O. Farkas, 
 J. B. Foresman, and D. J. Fox, Gaussian, Inc., Wallingford CT, 2019.
 
 ******************************************
 Gaussian 16:  ES64L-G16RevC.01  3-Jul-2019
                 1-Feb-2022 
 ******************************************
 %LindaWorkers=fizika47,fizika48,fizika49,fizika50,fizika51,fizika52,fizika53,fiz
 ika54
 %chk=bodipy.chk
 SetLPE:  input flags=" -opt "Tsnet.Node.lindarsharg: ssh" "
 SetLPE:    new flags=" -opt "Tsnet.Node.lindarsharg: ssh" -opt 'Tsnet.Node.lindarsharg: ssh'  -nodelist 'fizika47.fizika.bullx fizika48.fizika.bullx fizika49.fizika.bullx fizika50.fizika.bullx fizika51.fizika.bullx fizika52.fizika.bullx fizika53.fizika.bullx fizika54.fizika.bullx' -env GAUSS_MDEF=11408506880 -env GAUSS_EXEDIR="/lustre1/prg/gaussian/bin/G16_C01_Linda9.2_SSE4/g16/bsd:/lustre1/prg/gaussian/bin/G16_C01_Linda9.2_SSE4/g16/private:/lustre1/prg/gaussian/bin/G16_C01_Linda9.2_SSE4/g16""
 Will use up to    8 processors via Linda.
 ----------------------------------------------------------------------
 #p m062x cc-pvdz scrf=(cpcm,solvent=n,n-DiMethylFormamide) opt=(tight,
 calcfc) freq nosymm int=ultrafine fchk
 ----------------------------------------------------------------------
 1/7=10,10=4,18=20,19=15,26=6,38=1/1,3;
 2/9=110,12=2,15=1,17=6,18=5,40=1/2;
 3/5=16,11=2,25=1,30=1,70=2101,71=2,72=148,74=-55,75=-5,140=1/1,2,3;
 4//1;
 5/5=2,38=5,53=148/2;
 8/6=4,10=90,11=11/1;
 11/6=1,8=1,9=11,15=111,16=1,31=1/1,2,10;
 10/6=1,13=1,31=1/2;
 6/7=2,8=2,9=2,10=2,28=1/1;
 7/10=1,25=1,30=1/1,2,3,16;
 1/7=10,10=4,18=20,19=15,26=6/3(2);
 2/9=110,15=1/2;
 99//99;
 2/9=110,15=1/2;
 3/5=16,11=2,25=1,30=1,70=2105,71=1,72=148,74=-55,75=-5/1,2,3;
 4/5=5,16=3,69=1/1;
 5/5=2,38=5,53=148/2;
 7/30=1/1,2,3,16;
 1/7=10,18=20,19=15,26=6/3(-5);
 2/9=110,15=1/2;
 6/7=2,8=2,9=2,10=2,19=2,28=1/1;
 99/9=1/99;
 Leave Link    1 at Tue Feb  1 06:33:03 2022, MaxMem=           0 cpu:               1.2 elap:               0.1
 (Enter /lustre1/prg/gaussian/bin/G16_C01_Linda9.2_SSE4/g16/l101.exe)
 -----------------------------------
 BDP-phenyl, optimized S0 in toluene
 -----------------------------------
 Symbolic Z-matrix:
 Charge =  0 Multiplicity = 1
 B                    -0.00469  -0.10715   0.00523 
 N                     0.00355  -0.0348    1.56053 
 C                     1.09142   0.03399   2.3329 
 H                     2.08367   0.04716   1.88742 
 C                     0.72032   0.0914    3.69253 
 H                     1.40229   0.16063   4.53392 
 C                    -0.66717   0.06113   3.72674 
 H                    -1.31044   0.11634   4.60031 
 C                    -1.11444  -0.02512   2.38272 
 C                    -2.41075  -0.01349   1.84304 
 N                    -1.49909   0.04475  -0.4088 
 C                    -1.95685   0.07014  -1.66364 
 H                    -1.26471   0.08307  -2.50272 
 C                    -3.36721   0.06095  -1.66801 
 H                    -3.9994    0.07658  -2.55003 
 C                    -3.76782   0.01911  -0.33944 
 H                    -4.78289  -0.01718   0.04535 
 C                    -2.589     0.01886   0.45061 
 F                     0.75672   0.92638  -0.52704 
 F                     0.4778   -1.34134  -0.4211 
 C                    -3.58379  -0.01873   2.7443 
 C                    -3.70423  -1.00041   3.73869 
 H                    -2.93739  -1.77114   3.82768 
 C                    -4.81073  -1.00786   4.58442 
 H                    -4.90286  -1.78306   5.34553 
 C                    -5.79759  -0.03012   4.45627 
 C                    -5.67894   0.95398   3.47453 
 H                    -6.44292   1.72571   3.37709 
 C                    -4.58181   0.95827   2.61672 
 H                    -4.47817   1.73648   1.85944 
 H                    -6.6603   -0.03455   5.12325 
 
 ITRead=  0  0  0  0  0  0  0  0  0  0  0  0  0  0  0  0  0  0  0  0
 ITRead=  0  0  0  0  0  0  0  0  0  0  0
 MicOpt= -1 -1 -1 -1 -1 -1 -1 -1 -1 -1 -1 -1 -1 -1 -1 -1 -1 -1 -1 -1
 MicOpt= -1 -1 -1 -1 -1 -1 -1 -1 -1 -1 -1
 NAtoms=     31 NQM=       31 NQMF=       0 NMMI=      0 NMMIF=      0
                NMic=       0 NMicF=      0.
                    Isotopes and Nuclear Properties:
 (Nuclear quadrupole moments (NQMom) in fm**2, nuclear magnetic moments (NMagM)
  in nuclear magnetons)

  Atom         1           2           3           4           5           6           7           8           9          10
 IAtWgt=          11          14          12           1          12           1          12           1          12          12
 AtmWgt=  11.0093053  14.0030740  12.0000000   1.0078250  12.0000000   1.0078250  12.0000000   1.0078250  12.0000000  12.0000000
 NucSpn=           3           2           0           1           0           1           0           1           0           0
 AtZEff=  -0.0000000  -0.0000000  -0.0000000  -0.0000000  -0.0000000  -0.0000000  -0.0000000  -0.0000000  -0.0000000  -0.0000000
 NQMom=    4.0590000   2.0440000   0.0000000   0.0000000   0.0000000   0.0000000   0.0000000   0.0000000   0.0000000   0.0000000
 NMagM=    2.6886370   0.4037610   0.0000000   2.7928460   0.0000000   2.7928460   0.0000000   2.7928460   0.0000000   0.0000000
 AtZNuc=   5.0000000   7.0000000   6.0000000   1.0000000   6.0000000   1.0000000   6.0000000   1.0000000   6.0000000   6.0000000

  Atom        11          12          13          14          15          16          17          18          19          20
 IAtWgt=          14          12           1          12           1          12           1          12          19          19
 AtmWgt=  14.0030740  12.0000000   1.0078250  12.0000000   1.0078250  12.0000000   1.0078250  12.0000000  18.9984033  18.9984033
 NucSpn=           2           0           1           0           1           0           1           0           1           1
 AtZEff=  -0.0000000  -0.0000000  -0.0000000  -0.0000000  -0.0000000  -0.0000000  -0.0000000  -0.0000000  -0.0000000  -0.0000000
 NQMom=    2.0440000   0.0000000   0.0000000   0.0000000   0.0000000   0.0000000   0.0000000   0.0000000   0.0000000   0.0000000
 NMagM=    0.4037610   0.0000000   2.7928460   0.0000000   2.7928460   0.0000000   2.7928460   0.0000000   2.6288670   2.6288670
 AtZNuc=   7.0000000   6.0000000   1.0000000   6.0000000   1.0000000   6.0000000   1.0000000   6.0000000   9.0000000   9.0000000

  Atom        21          22          23          24          25          26          27          28          29          30
 IAtWgt=          12          12           1          12           1          12          12           1          12           1
 AtmWgt=  12.0000000  12.0000000   1.0078250  12.0000000   1.0078250  12.0000000  12.0000000   1.0078250  12.0000000   1.0078250
 NucSpn=           0           0           1           0           1           0           0           1           0           1
 AtZEff=  -0.0000000  -0.0000000  -0.0000000  -0.0000000  -0.0000000  -0.0000000  -0.0000000  -0.0000000  -0.0000000  -0.0000000
 NQMom=    0.0000000   0.0000000   0.0000000   0.0000000   0.0000000   0.0000000   0.0000000   0.0000000   0.0000000   0.0000000
 NMagM=    0.0000000   0.0000000   2.7928460   0.0000000   2.7928460   0.0000000   0.0000000   2.7928460   0.0000000   2.7928460
 AtZNuc=   6.0000000   6.0000000   1.0000000   6.0000000   1.0000000   6.0000000   6.0000000   1.0000000   6.0000000   1.0000000

  Atom        31
 IAtWgt=           1
 AtmWgt=   1.0078250
 NucSpn=           1
 AtZEff=  -0.0000000
 NQMom=    0.0000000
 NMagM=    2.7928460
 AtZNuc=   1.0000000
 Leave Link  101 at Tue Feb  1 06:33:04 2022, MaxMem= 11408506880 cpu:               6.7 elap:               0.6
 (Enter /lustre1/prg/gaussian/bin/G16_C01_Linda9.2_SSE4/g16/l103.exe)

 GradGradGradGradGradGradGradGradGradGradGradGradGradGradGradGradGradGrad
 Berny optimization.
 Initialization pass.
                           ----------------------------
                           !    Initial Parameters    !
                           ! (Angstroms and Degrees)  !
 --------------------------                            --------------------------
 ! Name  Definition              Value          Derivative Info.                !
 --------------------------------------------------------------------------------
 ! R1    R(1,2)                  1.557          calculate D2E/DX2 analytically  !
 ! R2    R(1,11)                 1.5581         calculate D2E/DX2 analytically  !
 ! R3    R(1,19)                 1.3897         calculate D2E/DX2 analytically  !
 ! R4    R(1,20)                 1.392          calculate D2E/DX2 analytically  !
 ! R5    R(2,3)                  1.3359         calculate D2E/DX2 analytically  !
 ! R6    R(2,9)                  1.3878         calculate D2E/DX2 analytically  !
 ! R7    R(3,4)                  1.0877         calculate D2E/DX2 analytically  !
 ! R8    R(3,5)                  1.4105         calculate D2E/DX2 analytically  !
 ! R9    R(5,6)                  1.0853         calculate D2E/DX2 analytically  !
 ! R10   R(5,7)                  1.3882         calculate D2E/DX2 analytically  !
 ! R11   R(7,8)                  1.0863         calculate D2E/DX2 analytically  !
 ! R12   R(7,9)                  1.4191         calculate D2E/DX2 analytically  !
 ! R13   R(9,10)                 1.4042         calculate D2E/DX2 analytically  !
 ! R14   R(10,18)                1.4042         calculate D2E/DX2 analytically  !
 ! R15   R(10,21)                1.4793         calculate D2E/DX2 analytically  !
 ! R16   R(11,12)                1.336          calculate D2E/DX2 analytically  !
 ! R17   R(11,18)                1.3882         calculate D2E/DX2 analytically  !
 ! R18   R(12,13)                1.0878         calculate D2E/DX2 analytically  !
 ! R19   R(12,14)                1.4104         calculate D2E/DX2 analytically  !
 ! R20   R(14,15)                1.0853         calculate D2E/DX2 analytically  !
 ! R21   R(14,16)                1.3883         calculate D2E/DX2 analytically  !
 ! R22   R(16,17)                1.0862         calculate D2E/DX2 analytically  !
 ! R23   R(16,18)                1.4191         calculate D2E/DX2 analytically  !
 ! R24   R(21,22)                1.4025         calculate D2E/DX2 analytically  !
 ! R25   R(21,29)                1.4024         calculate D2E/DX2 analytically  !
 ! R26   R(22,23)                1.0909         calculate D2E/DX2 analytically  !
 ! R27   R(22,24)                1.3927         calculate D2E/DX2 analytically  !
 ! R28   R(24,25)                1.0903         calculate D2E/DX2 analytically  !
 ! R29   R(24,26)                1.3951         calculate D2E/DX2 analytically  !
 ! R30   R(26,27)                1.3951         calculate D2E/DX2 analytically  !
 ! R31   R(26,31)                1.0905         calculate D2E/DX2 analytically  !
 ! R32   R(27,28)                1.0903         calculate D2E/DX2 analytically  !
 ! R33   R(27,29)                1.3927         calculate D2E/DX2 analytically  !
 ! R34   R(29,30)                1.0908         calculate D2E/DX2 analytically  !
 ! A1    A(2,1,11)             105.4249         calculate D2E/DX2 analytically  !
 ! A2    A(2,1,19)             110.19           calculate D2E/DX2 analytically  !
 ! A3    A(2,1,20)             110.1997         calculate D2E/DX2 analytically  !
 ! A4    A(11,1,19)            110.5614         calculate D2E/DX2 analytically  !
 ! A5    A(11,1,20)            109.7234         calculate D2E/DX2 analytically  !
 ! A6    A(19,1,20)            110.6208         calculate D2E/DX2 analytically  !
 ! A7    A(1,2,3)              125.747          calculate D2E/DX2 analytically  !
 ! A8    A(1,2,9)              126.0051         calculate D2E/DX2 analytically  !
 ! A9    A(3,2,9)              108.2475         calculate D2E/DX2 analytically  !
 ! A10   A(2,3,4)              120.4425         calculate D2E/DX2 analytically  !
 ! A11   A(2,3,5)              110.19           calculate D2E/DX2 analytically  !
 ! A12   A(4,3,5)              129.3654         calculate D2E/DX2 analytically  !
 ! A13   A(3,5,6)              125.7731         calculate D2E/DX2 analytically  !
 ! A14   A(3,5,7)              106.6078         calculate D2E/DX2 analytically  !
 ! A15   A(6,5,7)              127.6132         calculate D2E/DX2 analytically  !
 ! A16   A(5,7,8)              127.6313         calculate D2E/DX2 analytically  !
 ! A17   A(5,7,9)              107.0369         calculate D2E/DX2 analytically  !
 ! A18   A(8,7,9)              125.3163         calculate D2E/DX2 analytically  !
 ! A19   A(2,9,7)              107.9156         calculate D2E/DX2 analytically  !
 ! A20   A(2,9,10)             121.0672         calculate D2E/DX2 analytically  !
 ! A21   A(7,9,10)             130.8781         calculate D2E/DX2 analytically  !
 ! A22   A(9,10,18)            119.901          calculate D2E/DX2 analytically  !
 ! A23   A(9,10,21)            119.8579         calculate D2E/DX2 analytically  !
 ! A24   A(18,10,21)           120.2369         calculate D2E/DX2 analytically  !
 ! A25   A(1,11,12)            125.4557         calculate D2E/DX2 analytically  !
 ! A26   A(1,11,18)            125.9225         calculate D2E/DX2 analytically  !
 ! A27   A(12,11,18)           108.2289         calculate D2E/DX2 analytically  !
 ! A28   A(11,12,13)           120.446          calculate D2E/DX2 analytically  !
 ! A29   A(11,12,14)           110.2077         calculate D2E/DX2 analytically  !
 ! A30   A(13,12,14)           129.3425         calculate D2E/DX2 analytically  !
 ! A31   A(12,14,15)           125.7969         calculate D2E/DX2 analytically  !
 ! A32   A(12,14,16)           106.606          calculate D2E/DX2 analytically  !
 ! A33   A(15,14,16)           127.5957         calculate D2E/DX2 analytically  !
 ! A34   A(14,16,17)           127.5689         calculate D2E/DX2 analytically  !
 ! A35   A(14,16,18)           107.0424         calculate D2E/DX2 analytically  !
 ! A36   A(17,16,18)           125.3861         calculate D2E/DX2 analytically  !
 ! A37   A(10,18,11)           120.9747         calculate D2E/DX2 analytically  !
 ! A38   A(10,18,16)           131.112          calculate D2E/DX2 analytically  !
 ! A39   A(11,18,16)           107.9105         calculate D2E/DX2 analytically  !
 ! A40   A(10,21,22)           120.1681         calculate D2E/DX2 analytically  !
 ! A41   A(10,21,29)           120.4253         calculate D2E/DX2 analytically  !
 ! A42   A(22,21,29)           119.4062         calculate D2E/DX2 analytically  !
 ! A43   A(21,22,23)           119.4729         calculate D2E/DX2 analytically  !
 ! A44   A(21,22,24)           120.1669         calculate D2E/DX2 analytically  !
 ! A45   A(23,22,24)           120.343          calculate D2E/DX2 analytically  !
 ! A46   A(22,24,25)           119.6603         calculate D2E/DX2 analytically  !
 ! A47   A(22,24,26)           120.1638         calculate D2E/DX2 analytically  !
 ! A48   A(25,24,26)           120.1757         calculate D2E/DX2 analytically  !
 ! A49   A(24,26,27)           119.9239         calculate D2E/DX2 analytically  !
 ! A50   A(24,26,31)           120.0392         calculate D2E/DX2 analytically  !
 ! A51   A(27,26,31)           120.0369         calculate D2E/DX2 analytically  !
 ! A52   A(26,27,28)           120.1712         calculate D2E/DX2 analytically  !
 ! A53   A(26,27,29)           120.1725         calculate D2E/DX2 analytically  !
 ! A54   A(28,27,29)           119.656          calculate D2E/DX2 analytically  !
 ! A55   A(21,29,27)           120.1614         calculate D2E/DX2 analytically  !
 ! A56   A(21,29,30)           119.5082         calculate D2E/DX2 analytically  !
 ! A57   A(27,29,30)           120.309          calculate D2E/DX2 analytically  !
 ! D1    D(11,1,2,3)          -171.729          calculate D2E/DX2 analytically  !
 ! D2    D(11,1,2,9)             7.9925         calculate D2E/DX2 analytically  !
 ! D3    D(19,1,2,3)           -52.4114         calculate D2E/DX2 analytically  !
 ! D4    D(19,1,2,9)           127.31           calculate D2E/DX2 analytically  !
 ! D5    D(20,1,2,3)            69.9411         calculate D2E/DX2 analytically  !
 ! D6    D(20,1,2,9)          -110.3375         calculate D2E/DX2 analytically  !
 ! D7    D(2,1,11,12)          178.3265         calculate D2E/DX2 analytically  !
 ! D8    D(2,1,11,18)           -9.7273         calculate D2E/DX2 analytically  !
 ! D9    D(19,1,11,12)          59.2559         calculate D2E/DX2 analytically  !
 ! D10   D(19,1,11,18)        -128.798          calculate D2E/DX2 analytically  !
 ! D11   D(20,1,11,12)         -63.0247         calculate D2E/DX2 analytically  !
 ! D12   D(20,1,11,18)         108.9214         calculate D2E/DX2 analytically  !
 ! D13   D(1,2,3,4)              0.228          calculate D2E/DX2 analytically  !
 ! D14   D(1,2,3,5)            179.7567         calculate D2E/DX2 analytically  !
 ! D15   D(9,2,3,4)           -179.5348         calculate D2E/DX2 analytically  !
 ! D16   D(9,2,3,5)             -0.006          calculate D2E/DX2 analytically  !
 ! D17   D(1,2,9,7)           -179.4693         calculate D2E/DX2 analytically  !
 ! D18   D(1,2,9,10)            -3.315          calculate D2E/DX2 analytically  !
 ! D19   D(3,2,9,7)              0.2927         calculate D2E/DX2 analytically  !
 ! D20   D(3,2,9,10)           176.447          calculate D2E/DX2 analytically  !
 ! D21   D(2,3,5,6)           -179.4601         calculate D2E/DX2 analytically  !
 ! D22   D(2,3,5,7)             -0.2873         calculate D2E/DX2 analytically  !
 ! D23   D(4,3,5,6)              0.0143         calculate D2E/DX2 analytically  !
 ! D24   D(4,3,5,7)            179.1872         calculate D2E/DX2 analytically  !
 ! D25   D(3,5,7,8)           -178.1616         calculate D2E/DX2 analytically  !
 ! D26   D(3,5,7,9)              0.454          calculate D2E/DX2 analytically  !
 ! D27   D(6,5,7,8)              0.9912         calculate D2E/DX2 analytically  !
 ! D28   D(6,5,7,9)            179.6068         calculate D2E/DX2 analytically  !
 ! D29   D(5,7,9,2)             -0.4671         calculate D2E/DX2 analytically  !
 ! D30   D(5,7,9,10)          -176.1095         calculate D2E/DX2 analytically  !
 ! D31   D(8,7,9,2)            178.1893         calculate D2E/DX2 analytically  !
 ! D32   D(8,7,9,10)             2.5469         calculate D2E/DX2 analytically  !
 ! D33   D(2,9,10,18)           -1.4312         calculate D2E/DX2 analytically  !
 ! D34   D(2,9,10,21)          179.3128         calculate D2E/DX2 analytically  !
 ! D35   D(7,9,10,18)          173.7271         calculate D2E/DX2 analytically  !
 ! D36   D(7,9,10,21)           -5.5289         calculate D2E/DX2 analytically  !
 ! D37   D(9,10,18,11)          -0.2417         calculate D2E/DX2 analytically  !
 ! D38   D(9,10,18,16)         179.0731         calculate D2E/DX2 analytically  !
 ! D39   D(21,10,18,11)        179.0115         calculate D2E/DX2 analytically  !
 ! D40   D(21,10,18,16)         -1.6737         calculate D2E/DX2 analytically  !
 ! D41   D(9,10,21,22)         -53.1942         calculate D2E/DX2 analytically  !
 ! D42   D(9,10,21,29)         126.5694         calculate D2E/DX2 analytically  !
 ! D43   D(18,10,21,22)        127.5524         calculate D2E/DX2 analytically  !
 ! D44   D(18,10,21,29)        -52.6841         calculate D2E/DX2 analytically  !
 ! D45   D(1,11,12,13)          -6.2444         calculate D2E/DX2 analytically  !
 ! D46   D(1,11,12,14)         173.1069         calculate D2E/DX2 analytically  !
 ! D47   D(18,11,12,13)       -179.3839         calculate D2E/DX2 analytically  !
 ! D48   D(18,11,12,14)         -0.0325         calculate D2E/DX2 analytically  !
 ! D49   D(1,11,18,10)           6.7973         calculate D2E/DX2 analytically  !
 ! D50   D(1,11,18,16)        -172.6602         calculate D2E/DX2 analytically  !
 ! D51   D(12,11,18,10)        179.8963         calculate D2E/DX2 analytically  !
 ! D52   D(12,11,18,16)          0.4388         calculate D2E/DX2 analytically  !
 ! D53   D(11,12,14,15)       -179.9889         calculate D2E/DX2 analytically  !
 ! D54   D(11,12,14,16)         -0.3927         calculate D2E/DX2 analytically  !
 ! D55   D(13,12,14,15)         -0.712          calculate D2E/DX2 analytically  !
 ! D56   D(13,12,14,16)        178.8843         calculate D2E/DX2 analytically  !
 ! D57   D(12,14,16,17)       -178.7867         calculate D2E/DX2 analytically  !
 ! D58   D(12,14,16,18)          0.6442         calculate D2E/DX2 analytically  !
 ! D59   D(15,14,16,17)          0.8            calculate D2E/DX2 analytically  !
 ! D60   D(15,14,16,18)       -179.769          calculate D2E/DX2 analytically  !
 ! D61   D(14,16,18,10)        179.9405         calculate D2E/DX2 analytically  !
 ! D62   D(14,16,18,11)         -0.6769         calculate D2E/DX2 analytically  !
 ! D63   D(17,16,18,10)         -0.6128         calculate D2E/DX2 analytically  !
 ! D64   D(17,16,18,11)        178.7698         calculate D2E/DX2 analytically  !
 ! D65   D(10,21,22,23)         -1.2944         calculate D2E/DX2 analytically  !
 ! D66   D(10,21,22,24)       -179.7947         calculate D2E/DX2 analytically  !
 ! D67   D(29,21,22,23)        178.9396         calculate D2E/DX2 analytically  !
 ! D68   D(29,21,22,24)          0.4394         calculate D2E/DX2 analytically  !
 ! D69   D(10,21,29,27)       -179.528          calculate D2E/DX2 analytically  !
 ! D70   D(10,21,29,30)         -1.2075         calculate D2E/DX2 analytically  !
 ! D71   D(22,21,29,27)          0.2374         calculate D2E/DX2 analytically  !
 ! D72   D(22,21,29,30)        178.5578         calculate D2E/DX2 analytically  !
 ! D73   D(21,22,24,25)        179.1502         calculate D2E/DX2 analytically  !
 ! D74   D(21,22,24,26)         -0.7065         calculate D2E/DX2 analytically  !
 ! D75   D(23,22,24,25)          0.6631         calculate D2E/DX2 analytically  !
 ! D76   D(23,22,24,26)       -179.1936         calculate D2E/DX2 analytically  !
 ! D77   D(22,24,26,27)          0.2946         calculate D2E/DX2 analytically  !
 ! D78   D(22,24,26,31)       -179.6526         calculate D2E/DX2 analytically  !
 ! D79   D(25,24,26,27)       -179.5613         calculate D2E/DX2 analytically  !
 ! D80   D(25,24,26,31)          0.4915         calculate D2E/DX2 analytically  !
 ! D81   D(24,26,27,28)       -179.4054         calculate D2E/DX2 analytically  !
 ! D82   D(24,26,27,29)          0.3839         calculate D2E/DX2 analytically  !
 ! D83   D(31,26,27,28)          0.5418         calculate D2E/DX2 analytically  !
 ! D84   D(31,26,27,29)       -179.6689         calculate D2E/DX2 analytically  !
 ! D85   D(26,27,29,21)         -0.6493         calculate D2E/DX2 analytically  !
 ! D86   D(26,27,29,30)       -178.9562         calculate D2E/DX2 analytically  !
 ! D87   D(28,27,29,21)        179.1411         calculate D2E/DX2 analytically  !
 ! D88   D(28,27,29,30)          0.8342         calculate D2E/DX2 analytically  !
 --------------------------------------------------------------------------------
 Trust Radius=3.00D-01 FncErr=5.00D-06 GrdErr=5.00D-06 EigMax=2.50D+02 EigMin=1.00D-04
 Number of steps in this run=    186 maximum allowed number of steps=    186.
 GradGradGradGradGradGradGradGradGradGradGradGradGradGradGradGradGradGrad

 Leave Link  103 at Tue Feb  1 06:33:04 2022, MaxMem= 11408506880 cpu:               0.2 elap:               0.0
 (Enter /lustre1/prg/gaussian/bin/G16_C01_Linda9.2_SSE4/g16/l202.exe)
                          Input orientation:                          
 ---------------------------------------------------------------------
 Center     Atomic      Atomic             Coordinates (Angstroms)
 Number     Number       Type             X           Y           Z
 ---------------------------------------------------------------------
      1          5           0       -0.004686   -0.107152    0.005226
      2          7           0        0.003548   -0.034800    1.560532
      3          6           0        1.091421    0.033991    2.332896
      4          1           0        2.083673    0.047162    1.887420
      5          6           0        0.720322    0.091400    3.692526
      6          1           0        1.402293    0.160633    4.533920
      7          6           0       -0.667171    0.061134    3.726743
      8          1           0       -1.310438    0.116342    4.600311
      9          6           0       -1.114442   -0.025116    2.382722
     10          6           0       -2.410750   -0.013491    1.843035
     11          7           0       -1.499087    0.044745   -0.408802
     12          6           0       -1.956852    0.070138   -1.663643
     13          1           0       -1.264713    0.083072   -2.502719
     14          6           0       -3.367211    0.060949   -1.668014
     15          1           0       -3.999396    0.076583   -2.550027
     16          6           0       -3.767823    0.019114   -0.339442
     17          1           0       -4.782894   -0.017180    0.045352
     18          6           0       -2.589001    0.018861    0.450605
     19          9           0        0.756717    0.926383   -0.527040
     20          9           0        0.477796   -1.341339   -0.421102
     21          6           0       -3.583787   -0.018728    2.744297
     22          6           0       -3.704225   -1.000408    3.738689
     23          1           0       -2.937387   -1.771143    3.827681
     24          6           0       -4.810726   -1.007863    4.584417
     25          1           0       -4.902855   -1.783062    5.345534
     26          6           0       -5.797590   -0.030121    4.456265
     27          6           0       -5.678943    0.953982    3.474528
     28          1           0       -6.442924    1.725709    3.377094
     29          6           0       -4.581809    0.958273    2.616723
     30          1           0       -4.478169    1.736484    1.859444
     31          1           0       -6.660297   -0.034554    5.123247
 ---------------------------------------------------------------------
                    Distance matrix (angstroms):
                    1          2          3          4          5
     1  B    0.000000
     2  N    1.557010   0.000000
     3  C    2.576707   1.335944   0.000000
     4  H    2.815619   2.107248   1.087744   0.000000
     5  C    3.763142   2.252796   1.410533   2.262541   0.000000
     6  H    4.749776   3.291765   2.226474   2.735163   1.085275
     7  C    3.783767   2.269700   2.244146   3.309146   1.388245
     8  H    4.782232   3.315066   3.304070   4.345636   2.224563
     9  C    2.625029   1.387801   2.207217   3.237049   2.257326
    10  C    3.029102   2.430863   3.536583   4.495051   3.638026
    11  N    1.558116   2.478410   3.771970   4.255445   4.663566
    12  C    2.574395   3.774849   5.026490   5.379258   5.988010
    13  H    2.813120   4.258214   5.379307   5.521440   6.505497
    14  C    3.759596   4.668479   5.990610   6.507952   6.741234
    15  H    4.745607   5.738699   7.054160   7.529643   7.825946
    16  C    3.780997   4.223274   5.545617   6.260967   6.033692
    17  H    4.779223   5.020568   6.304209   7.109648   6.602958
    18  C    2.625438   2.820661   4.133855   4.888673   4.633242
    19  F    1.389689   2.418490   3.014569   2.891965   4.301541
    20  F    1.392035   2.420502   3.138881   3.136248   4.362739
    21  C    4.507804   3.777636   4.693570   5.732249   4.408698
    22  C    5.331345   4.407306   5.103377   6.166390   4.557498
    23  H    5.097133   4.099262   4.660921   5.681715   4.106844
    24  C    6.699126   5.767839   6.402355   7.477941   5.709321
    25  H    7.437716   6.438591   6.950469   8.007487   6.153549
    26  C    7.305848   6.483710   7.209111   8.289707   6.563630
    27  C    6.734928   6.077152   6.927304   7.974926   6.460818
    28  H    7.495317   6.925048   7.792215   8.817001   7.354084
    29  C    5.376347   4.809078   5.755032   6.766879   5.479180
    30  H    5.181618   4.828311   5.843199   6.775866   5.752460
    31  H    8.396223   7.556439   8.238925   9.323855   7.519067
                    6          7          8          9         10
     6  H    0.000000
     7  C    2.223537   0.000000
     8  H    2.713905   1.086260   0.000000
     9  C    3.316038   1.419113   2.230723   0.000000
    10  C    4.670169   2.567877   2.971551   1.404212   0.000000
    11  N    5.732533   4.218422   5.013175   2.818765   2.430080
    12  C    7.049953   5.542528   6.297389   4.134223   3.536921
    13  H    7.525505   6.258094   7.103255   4.888949   4.495365
    14  C    7.824455   6.032712   6.597369   4.635821   3.639756
    15  H    8.908850   7.106462   7.639333   5.715358   4.672355
    16  C    7.106320   5.113675   5.518093   3.801653   2.570198
    17  H    7.644305   5.522495   5.729174   4.349816   2.976364
    18  C    5.711741   3.798460   4.343304   2.430912   1.404166
    19  F    5.159114   4.568455   5.587399   3.587938   4.066136
    20  F    5.259549   4.525759   5.526048   3.482685   3.902973
    21  C    5.300558   3.078673   2.937881   2.495685   1.479296
    22  C    5.296880   3.217252   2.778442   3.081691   2.498117
    23  H    4.802432   2.919128   2.608931   2.908547   2.702870
    24  C    6.322147   4.364334   3.676426   4.413136   3.776749
    25  H    6.647673   4.895157   4.131411   5.120615   4.648599
    26  C    7.202828   5.182830   4.491852   5.121668   4.277842
    27  C    7.203861   5.096925   4.588340   4.794303   3.778738
    28  H    8.083015   6.020996   5.516225   5.696217   4.651514
    29  C    6.334142   4.166701   3.917313   3.611709   2.501283
    30  H    6.649508   4.562599   4.491295   3.832977   2.708672
    31  H    8.086455   6.154424   5.377474   6.186039   5.368322
                   11         12         13         14         15
    11  N    0.000000
    12  C    1.335971   0.000000
    13  H    2.107342   1.087783   0.000000
    14  C    2.252946   1.410396   2.262238   0.000000
    15  H    3.292021   2.226590   2.735100   1.085288   0.000000
    16  C    2.269941   2.244043   3.308990   1.388288   2.223424
    17  H    3.315642   3.303756   4.345148   2.223935   2.712684
    18  C    1.388223   2.207326   3.237280   2.257416   3.316073
    19  F    2.424854   3.064062   2.949688   4.365499   5.237867
    20  F    2.414425   3.076311   3.065683   4.278467   5.156362
    21  C    3.780481   4.699441   5.737564   4.418342   5.311467
    22  C    4.812137   5.777938   6.788249   5.520190   6.387095
    23  H    4.828452   5.874215   6.805139   5.808956   6.724367
    24  C    6.083352   6.953052   7.999490   6.505305   7.261857
    25  H    6.931010   7.825717   8.849498   7.412721   8.161765
    26  C    6.492427   7.225967   8.305856   6.589524   7.234156
    27  C    5.777383   6.405930   7.481403   5.708533   6.315534
    28  H    6.449820   6.948006   8.005269   6.138774   6.619759
    29  C    4.414919   5.099090   6.162612   4.543062   5.273698
    30  H    4.108753   4.641755   5.664674   4.060124   4.735813
    31  H    7.566237   8.258040   9.342458   7.548163   8.122308
                   16         17         18         19         20
    16  C    0.000000
    17  H    1.086164   0.000000
    18  C    1.419083   2.231299   0.000000
    19  F    4.618419   5.648472   3.601835   0.000000
    20  F    4.459011   5.444799   3.466304   2.287265   0.000000
    21  C    3.089457   2.953331   2.500407   5.516779   5.316531
    22  C    4.204120   3.971272   3.618581   6.465986   5.908417
    23  H    4.610809   4.559418   3.837985   6.315588   5.468122
    24  C    5.136800   4.646002   4.804022   7.801585   7.289368
    25  H    6.070839   5.587903   5.706240   8.594124   7.899406
    26  C    5.207800   4.526138   5.132519   8.288979   8.055338
    27  C    4.367233   3.674957   4.423381   7.578326   7.638708
    28  H    4.886847   4.110215   5.131315   8.228974   8.469324
    29  C    3.206790   2.757516   3.089635   6.195492   6.333735
    30  H    2.879071   2.541481   2.916164   5.809957   6.263823
    31  H    6.181445   5.413868   6.197732   9.373433   9.132353
                   21         22         23         24         25
    21  C    0.000000
    22  C    1.402504   0.000000
    23  H    2.159285   1.090868   0.000000
    24  C    2.422769   1.392715   2.159779   0.000000
    25  H    3.408702   2.152025   2.483361   1.090285   0.000000
    26  C    2.798551   2.416309   3.406910   1.395100   2.159665
    27  C    2.422619   2.790866   3.881643   2.415469   3.405053
    28  H    3.408542   3.881100   4.971900   3.405013   4.307905
    29  C    1.402446   2.421857   3.408849   2.791042   3.881288
    30  H    2.159549   3.408978   4.307135   3.881689   4.971960
    31  H    3.889032   3.404150   4.307469   2.158375   2.489035
                   26         27         28         29         30
    26  C    0.000000
    27  C    1.395114   0.000000
    28  H    2.159631   1.090286   0.000000
    29  C    2.416394   1.392678   2.151946   0.000000
    30  H    3.406647   2.159320   2.482668   1.090791   0.000000
    31  H    1.090481   2.158364   2.488941   3.404186   4.307049
                   31
    31  H    0.000000
 Symmetry turned off by external request.
 Stoichiometry    C15H11BF2N2
 Framework group  C1[X(C15H11BF2N2)]
 Deg. of freedom    87
 Full point group                 C1      NOp   1
 Rotational constants (GHZ):           0.5801125           0.2825441           0.2065986
 Leave Link  202 at Tue Feb  1 06:33:04 2022, MaxMem= 11408506880 cpu:               0.1 elap:               0.0
 (Enter /lustre1/prg/gaussian/bin/G16_C01_Linda9.2_SSE4/g16/l301.exe)
 Standard basis: CC-pVDZ (5D, 7F)
 Ernie: Thresh=  0.10000D-02 Tol=  0.10000D-05 Strict=F.
 Ernie:  40 primitive shells out of 495 were deleted.
   335 basis functions,   737 primitive gaussians,   355 cartesian basis functions
    69 alpha electrons       69 beta electrons
       nuclear repulsion energy      1470.3616980773 Hartrees.
 IExCor= 4336 DFT=T Ex+Corr=M062X ExCW=0 ScaHFX=  0.540000
 ScaDFX=  1.000000  1.000000  1.000000  1.000000 ScalE2=  1.000000  1.000000
 IRadAn=      5 IRanWt=     -1 IRanGd=            0 ICorTp=0 IEmpDi=  4
 NAtoms=   31 NActive=   31 NUniq=   31 SFac= 1.00D+00 NAtFMM=   60 NAOKFM=F Big=F
 Integral buffers will be    131072 words long.
 Raffenetti 2 integral format.
 Two-electron integral symmetry is turned off.
 Force inversion solution in PCM.
 ------------------------------------------------------------------------------
 Polarizable Continuum Model (PCM)
 =================================
 Model                : C-PCM.
 Atomic radii         : UFF (Universal Force Field).
 Polarization charges : Total charges.
 Charge compensation  : None.
 Solution method      : Matrix inversion.
 Cavity type          : Scaled VdW (van der Waals Surface) (Alpha=1.100).
 Cavity algorithm     : GePol (No added spheres)
                        Default sphere list used, NSphG=   31.
                        Lebedev-Laikov grids with approx.  5.0 points / Ang**2.
                        Smoothing algorithm: York/Karplus (Gamma=1.0000).
                        Polarization charges: spherical gaussians, with
                                              point-specific exponents (IZeta= 3).
                        Self-potential: point-specific (ISelfS= 7).
                        Self-field    : sphere-specific E.n sum rule (ISelfD= 2).
 1st derivatives      : Analytical E(r).r(x)/FMM algorithm (CHGder, D1EAlg=3).
                        Cavity 1st derivative terms included.
 2nd derivatives      : Analytical E(r).r(xy)/FMM algorithm (CHGder, D2EAlg=3).
                        Cavity 2nd derivative terms included.
 Solvent              : n,n-DiMethylFormamide, Eps=  37.219000 Eps(inf)=   2.046330
 ------------------------------------------------------------------------------
 GePol: Number of generator spheres                  =      31
 GePol: Total number of spheres                      =      31
 GePol: Number of exposed spheres                    =      31 (100.00%)
 GePol: Number of points                             =    2482
 GePol: Average weight of points                     =       0.13
 GePol: Minimum weight of points                     =   0.79D-11
 GePol: Maximum weight of points                     =    0.20577
 GePol: Number of points with low weight             =     149
 GePol: Fraction of low-weight points (<1% of avg)   =       6.00%
 GePol: Cavity surface area                          =    315.576 Ang**2
 GePol: Cavity volume                                =    347.017 Ang**3
 Leave Link  301 at Tue Feb  1 06:33:04 2022, MaxMem= 11408506880 cpu:               1.3 elap:               0.1
Warning: Permanently added 'fizika54.fizika.bullx' (ECDSA) to the list of known hosts.
@@@@@@@@@@@@@@@@@@@@@@@@@@@@@@@@@@@@@@@@@@@@@@@@@@@@@@@@@@@
@    WARNING: REMOTE HOST IDENTIFICATION HAS CHANGED!     @
@@@@@@@@@@@@@@@@@@@@@@@@@@@@@@@@@@@@@@@@@@@@@@@@@@@@@@@@@@@
IT IS POSSIBLE THAT SOMEONE IS DOING SOMETHING NASTY!
Someone could be eavesdropping on you right now (man-in-the-middle attack)!
It is also possible that a host key has just been changed.
The fingerprint for the ECDSA key sent by the remote host is
SHA256:8EB/dta3zL65mO1pv+8d0wE2OT2buqUpy/g0J04Imvc.
Please contact your system administrator.
Add correct host key in /lustre2/home/toliste/.ssh/known_hosts to get rid of this message.
Offending ECDSA key in /lustre2/home/toliste/.ssh/known_hosts:142
Password authentication is disabled to avoid man-in-the-middle attacks.
Keyboard-interactive authentication is disabled to avoid man-in-the-middle attacks.
@@@@@@@@@@@@@@@@@@@@@@@@@@@@@@@@@@@@@@@@@@@@@@@@@@@@@@@@@@@
@    WARNING: REMOTE HOST IDENTIFICATION HAS CHANGED!     @
@@@@@@@@@@@@@@@@@@@@@@@@@@@@@@@@@@@@@@@@@@@@@@@@@@@@@@@@@@@
IT IS POSSIBLE THAT SOMEONE IS DOING SOMETHING NASTY!
Someone could be eavesdropping on you right now (man-in-the-middle attack)!
It is also possible that a host key has just been changed.
The fingerprint for the ECDSA key sent by the remote host is
SHA256:M7N4+PsNku+I1HYDN4P2eKdo7KDrdu2gTV8W6I04mak.
Please contact your system administrator.
Add correct host key in /lustre2/home/toliste/.ssh/known_hosts to get rid of this message.
Offending ECDSA key in /lustre2/home/toliste/.ssh/known_hosts:141
Password authentication is disabled to avoid man-in-the-middle attacks.
Keyboard-interactive authentication is disabled to avoid man-in-the-middle attacks.
@@@@@@@@@@@@@@@@@@@@@@@@@@@@@@@@@@@@@@@@@@@@@@@@@@@@@@@@@@@
@    WARNING: REMOTE HOST IDENTIFICATION HAS CHANGED!     @
@@@@@@@@@@@@@@@@@@@@@@@@@@@@@@@@@@@@@@@@@@@@@@@@@@@@@@@@@@@
IT IS POSSIBLE THAT SOMEONE IS DOING SOMETHING NASTY!
Someone could be eavesdropping on you right now (man-in-the-middle attack)!
It is also possible that a host key has just been changed.
The fingerprint for the ECDSA key sent by the remote host is
SHA256:ntFBE6nhPx9wISQlOEpOwfSvkRhoW89+cKF14xNTHl8.
Please contact your system administrator.
Add correct host key in /lustre2/home/toliste/.ssh/known_hosts to get rid of this message.
Offending ECDSA key in /lustre2/home/toliste/.ssh/known_hosts:139
Password authentication is disabled to avoid man-in-the-middle attacks.
Keyboard-interactive authentication is disabled to avoid man-in-the-middle attacks.
@@@@@@@@@@@@@@@@@@@@@@@@@@@@@@@@@@@@@@@@@@@@@@@@@@@@@@@@@@@
@    WARNING: REMOTE HOST IDENTIFICATION HAS CHANGED!     @
@@@@@@@@@@@@@@@@@@@@@@@@@@@@@@@@@@@@@@@@@@@@@@@@@@@@@@@@@@@
IT IS POSSIBLE THAT SOMEONE IS DOING SOMETHING NASTY!
Someone could be eavesdropping on you right now (man-in-the-middle attack)!
It is also possible that a host key has just been changed.
The fingerprint for the ECDSA key sent by the remote host is
SHA256:r5soQIxRnmk29FTE5JOdituPXEMGmulv/v/xkbS9pcA.
Please contact your system administrator.
Add correct host key in /lustre2/home/toliste/.ssh/known_hosts to get rid of this message.
Offending ECDSA key in /lustre2/home/toliste/.ssh/known_hosts:126
Password authentication is disabled to avoid man-in-the-middle attacks.
Keyboard-interactive authentication is disabled to avoid man-in-the-middle attacks.
@@@@@@@@@@@@@@@@@@@@@@@@@@@@@@@@@@@@@@@@@@@@@@@@@@@@@@@@@@@
@    WARNING: REMOTE HOST IDENTIFICATION HAS CHANGED!     @
@@@@@@@@@@@@@@@@@@@@@@@@@@@@@@@@@@@@@@@@@@@@@@@@@@@@@@@@@@@
IT IS POSSIBLE THAT SOMEONE IS DOING SOMETHING NASTY!
Someone could be eavesdropping on you right now (man-in-the-middle attack)!
It is also possible that a host key has just been changed.
The fingerprint for the ECDSA key sent by the remote host is
SHA256:riRvS+NSPMnm0eRsRLnP85zCpheP3PvpkZYo1uiC2BQ.
Please contact your system administrator.
Add correct host key in /lustre2/home/toliste/.ssh/known_hosts to get rid of this message.
Offending ECDSA key in /lustre2/home/toliste/.ssh/known_hosts:138
Password authentication is disabled to avoid man-in-the-middle attacks.
Keyboard-interactive authentication is disabled to avoid man-in-the-middle attacks.
@@@@@@@@@@@@@@@@@@@@@@@@@@@@@@@@@@@@@@@@@@@@@@@@@@@@@@@@@@@
@    WARNING: REMOTE HOST IDENTIFICATION HAS CHANGED!     @
@@@@@@@@@@@@@@@@@@@@@@@@@@@@@@@@@@@@@@@@@@@@@@@@@@@@@@@@@@@
IT IS POSSIBLE THAT SOMEONE IS DOING SOMETHING NASTY!
Someone could be eavesdropping on you right now (man-in-the-middle attack)!
It is also possible that a host key has just been changed.
The fingerprint for the ECDSA key sent by the remote host is
SHA256:iql/71DAvox/0ep0uxNo7tO6d/XSARBjVPu4x7vTmu8.
Please contact your system administrator.
Add correct host key in /lustre2/home/toliste/.ssh/known_hosts to get rid of this message.
Offending ECDSA key in /lustre2/home/toliste/.ssh/known_hosts:140
Password authentication is disabled to avoid man-in-the-middle attacks.
Keyboard-interactive authentication is disabled to avoid man-in-the-middle attacks.
 (Enter /lustre1/prg/gaussian/bin/G16_C01_Linda9.2_SSE4/g16/linda-exe/l302.exel)
 NPDir=0 NMtPBC=     1 NCelOv=     1 NCel=       1 NClECP=     1 NCelD=      1
         NCelK=      1 NCelE2=     1 NClLst=     1 CellRange=     0.0.
 One-electron integrals computed using PRISM.
 NBasis=   335 RedAO= T EigKep=  2.50D-04  NBF=   335
 NBsUse=   335 1.00D-06 EigRej= -1.00D+00 NBFU=   335
 Precomputing XC quadrature grid using
 IXCGrd= 4 IRadAn=           5 IRanWt=          -1 IRanGd=           0 AccXCQ= 0.00D+00.
 Generated NRdTot=       0 NPtTot=           0 NUsed=           0 NTot=          32
 NSgBfM=   354   354   354   354   354 MxSgAt=    31 MxSgA2=    31.
 Leave Link  302 at Tue Feb  1 06:33:08 2022, MaxMem= 11408506880 cpu:              17.8 elap:               1.6
 (Enter /lustre1/prg/gaussian/bin/G16_C01_Linda9.2_SSE4/g16/l303.exe)
 DipDrv:  MaxL=1.
 Leave Link  303 at Tue Feb  1 06:33:08 2022, MaxMem= 11408506880 cpu:               1.4 elap:               0.3
@@@@@@@@@@@@@@@@@@@@@@@@@@@@@@@@@@@@@@@@@@@@@@@@@@@@@@@@@@@
@    WARNING: REMOTE HOST IDENTIFICATION HAS CHANGED!     @
@@@@@@@@@@@@@@@@@@@@@@@@@@@@@@@@@@@@@@@@@@@@@@@@@@@@@@@@@@@
IT IS POSSIBLE THAT SOMEONE IS DOING SOMETHING NASTY!
Someone could be eavesdropping on you right now (man-in-the-middle attack)!
It is also possible that a host key has just been changed.
The fingerprint for the ECDSA key sent by the remote host is
SHA256:iql/71DAvox/0ep0uxNo7tO6d/XSARBjVPu4x7vTmu8.
Please contact your system administrator.
Add correct host key in /lustre2/home/toliste/.ssh/known_hosts to get rid of this message.
Offending ECDSA key in /lustre2/home/toliste/.ssh/known_hosts:140
Password authentication is disabled to avoid man-in-the-middle attacks.
Keyboard-interactive authentication is disabled to avoid man-in-the-middle attacks.
@@@@@@@@@@@@@@@@@@@@@@@@@@@@@@@@@@@@@@@@@@@@@@@@@@@@@@@@@@@
@    WARNING: REMOTE HOST IDENTIFICATION HAS CHANGED!     @
@@@@@@@@@@@@@@@@@@@@@@@@@@@@@@@@@@@@@@@@@@@@@@@@@@@@@@@@@@@
IT IS POSSIBLE THAT SOMEONE IS DOING SOMETHING NASTY!
Someone could be eavesdropping on you right now (man-in-the-middle attack)!
It is also possible that a host key has just been changed.
The fingerprint for the ECDSA key sent by the remote host is
SHA256:8EB/dta3zL65mO1pv+8d0wE2OT2buqUpy/g0J04Imvc.
Please contact your system administrator.
Add correct host key in /lustre2/home/toliste/.ssh/known_hosts to get rid of this message.
Offending ECDSA key in /lustre2/home/toliste/.ssh/known_hosts:142
Password authentication is disabled to avoid man-in-the-middle attacks.
Keyboard-interactive authentication is disabled to avoid man-in-the-middle attacks.
@@@@@@@@@@@@@@@@@@@@@@@@@@@@@@@@@@@@@@@@@@@@@@@@@@@@@@@@@@@
@    WARNING: REMOTE HOST IDENTIFICATION HAS CHANGED!     @
@@@@@@@@@@@@@@@@@@@@@@@@@@@@@@@@@@@@@@@@@@@@@@@@@@@@@@@@@@@
IT IS POSSIBLE THAT SOMEONE IS DOING SOMETHING NASTY!
Someone could be eavesdropping on you right now (man-in-the-middle attack)!
It is also possible that a host key has just been changed.
The fingerprint for the ECDSA key sent by the remote host is
SHA256:M7N4+PsNku+I1HYDN4P2eKdo7KDrdu2gTV8W6I04mak.
Please contact your system administrator.
Add correct host key in /lustre2/home/toliste/.ssh/known_hosts to get rid of this message.
Offending ECDSA key in /lustre2/home/toliste/.ssh/known_hosts:141
Password authentication is disabled to avoid man-in-the-middle attacks.
Keyboard-interactive authentication is disabled to avoid man-in-the-middle attacks.
@@@@@@@@@@@@@@@@@@@@@@@@@@@@@@@@@@@@@@@@@@@@@@@@@@@@@@@@@@@
@    WARNING: REMOTE HOST IDENTIFICATION HAS CHANGED!     @
@@@@@@@@@@@@@@@@@@@@@@@@@@@@@@@@@@@@@@@@@@@@@@@@@@@@@@@@@@@
IT IS POSSIBLE THAT SOMEONE IS DOING SOMETHING NASTY!
Someone could be eavesdropping on you right now (man-in-the-middle attack)!
It is also possible that a host key has just been changed.
The fingerprint for the ECDSA key sent by the remote host is
SHA256:riRvS+NSPMnm0eRsRLnP85zCpheP3PvpkZYo1uiC2BQ.
Please contact your system administrator.
Add correct host key in /lustre2/home/toliste/.ssh/known_hosts to get rid of this message.
Offending ECDSA key in /lustre2/home/toliste/.ssh/known_hosts:138
Password authentication is disabled to avoid man-in-the-middle attacks.
Keyboard-interactive authentication is disabled to avoid man-in-the-middle attacks.
@@@@@@@@@@@@@@@@@@@@@@@@@@@@@@@@@@@@@@@@@@@@@@@@@@@@@@@@@@@
@    WARNING: REMOTE HOST IDENTIFICATION HAS CHANGED!     @
@@@@@@@@@@@@@@@@@@@@@@@@@@@@@@@@@@@@@@@@@@@@@@@@@@@@@@@@@@@
IT IS POSSIBLE THAT SOMEONE IS DOING SOMETHING NASTY!
Someone could be eavesdropping on you right now (man-in-the-middle attack)!
It is also possible that a host key has just been changed.
The fingerprint for the ECDSA key sent by the remote host is
SHA256:r5soQIxRnmk29FTE5JOdituPXEMGmulv/v/xkbS9pcA.
Please contact your system administrator.
Add correct host key in /lustre2/home/toliste/.ssh/known_hosts to get rid of this message.
Offending ECDSA key in /lustre2/home/toliste/.ssh/known_hosts:126
Password authentication is disabled to avoid man-in-the-middle attacks.
Keyboard-interactive authentication is disabled to avoid man-in-the-middle attacks.
@@@@@@@@@@@@@@@@@@@@@@@@@@@@@@@@@@@@@@@@@@@@@@@@@@@@@@@@@@@
@    WARNING: REMOTE HOST IDENTIFICATION HAS CHANGED!     @
@@@@@@@@@@@@@@@@@@@@@@@@@@@@@@@@@@@@@@@@@@@@@@@@@@@@@@@@@@@
IT IS POSSIBLE THAT SOMEONE IS DOING SOMETHING NASTY!
Someone could be eavesdropping on you right now (man-in-the-middle attack)!
It is also possible that a host key has just been changed.
The fingerprint for the ECDSA key sent by the remote host is
SHA256:ntFBE6nhPx9wISQlOEpOwfSvkRhoW89+cKF14xNTHl8.
Please contact your system administrator.
Add correct host key in /lustre2/home/toliste/.ssh/known_hosts to get rid of this message.
Offending ECDSA key in /lustre2/home/toliste/.ssh/known_hosts:139
Password authentication is disabled to avoid man-in-the-middle attacks.
Keyboard-interactive authentication is disabled to avoid man-in-the-middle attacks.
 (Enter /lustre1/prg/gaussian/bin/G16_C01_Linda9.2_SSE4/g16/linda-exe/l401.exel)
 ExpMin= 9.54D-02 ExpMax= 1.47D+04 ExpMxC= 5.03D+02 IAcc=3 IRadAn=         5 AccDes= 0.00D+00
 Harris functional with IExCor= 1009 and IRadAn=       5 diagonalized for initial guess.
 HarFok:  IExCor= 1009 AccDes= 0.00D+00 IRadAn=         5 IDoV= 1 UseB2=F ITyADJ=14
 ICtDFT=  3500011 ScaDFX=  1.000000  1.000000  1.000000  1.000000
 FoFCou: FMM=F IPFlag=           0 FMFlag=      100000 FMFlg1=           0
         NFxFlg=           0 DoJE=T BraDBF=F KetDBF=T FulRan=T
         wScrn=  0.000000 ICntrl=       500 IOpCl=  0 I1Cent=   200000004 NGrid=           0
         NMat0=    1 NMatS0=      1 NMatT0=    0 NMatD0=    1 NMtDS0=    0 NMtDT0=    0
 Symmetry not used in FoFCou.
 Harris En= -911.580627043332    
 JPrj=0 DoOrth=F DoCkMO=F.
 Leave Link  401 at Tue Feb  1 06:33:15 2022, MaxMem= 11408506880 cpu:              46.7 elap:               4.2
@@@@@@@@@@@@@@@@@@@@@@@@@@@@@@@@@@@@@@@@@@@@@@@@@@@@@@@@@@@
@    WARNING: REMOTE HOST IDENTIFICATION HAS CHANGED!     @
@@@@@@@@@@@@@@@@@@@@@@@@@@@@@@@@@@@@@@@@@@@@@@@@@@@@@@@@@@@
IT IS POSSIBLE THAT SOMEONE IS DOING SOMETHING NASTY!
Someone could be eavesdropping on you right now (man-in-the-middle attack)!
It is also possible that a host key has just been changed.
The fingerprint for the ECDSA key sent by the remote host is
SHA256:r5soQIxRnmk29FTE5JOdituPXEMGmulv/v/xkbS9pcA.
Please contact your system administrator.
Add correct host key in /lustre2/home/toliste/.ssh/known_hosts to get rid of this message.
Offending ECDSA key in /lustre2/home/toliste/.ssh/known_hosts:126
Password authentication is disabled to avoid man-in-the-middle attacks.
Keyboard-interactive authentication is disabled to avoid man-in-the-middle attacks.
@@@@@@@@@@@@@@@@@@@@@@@@@@@@@@@@@@@@@@@@@@@@@@@@@@@@@@@@@@@
@@@@@@@@@@@@@@@@@@@@@@@@@@@@@@@@@@@@@@@@@@@@@@@@@@@@@@@@@@@
@    WARNING: REMOTE HOST IDENTIFICATION HAS CHANGED!     @
@    WARNING: REMOTE HOST IDENTIFICATION HAS CHANGED!     @
@@@@@@@@@@@@@@@@@@@@@@@@@@@@@@@@@@@@@@@@@@@@@@@@@@@@@@@@@@@
@@@@@@@@@@@@@@@@@@@@@@@@@@@@@@@@@@@@@@@@@@@@@@@@@@@@@@@@@@@
IT IS POSSIBLE THAT SOMEONE IS DOING SOMETHING NASTY!
IT IS POSSIBLE THAT SOMEONE IS DOING SOMETHING NASTY!
Someone could be eavesdropping on you right now (man-in-the-middle attack)!
Someone could be eavesdropping on you right now (man-in-the-middle attack)!
It is also possible that a host key has just been changed.
It is also possible that a host key has just been changed.
The fingerprint for the ECDSA key sent by the remote host is
SHA256:M7N4+PsNku+I1HYDN4P2eKdo7KDrdu2gTV8W6I04mak.
The fingerprint for the ECDSA key sent by the remote host is
SHA256:8EB/dta3zL65mO1pv+8d0wE2OT2buqUpy/g0J04Imvc.
Please contact your system administrator.
Please contact your system administrator.
Add correct host key in /lustre2/home/toliste/.ssh/known_hosts to get rid of this message.
Add correct host key in /lustre2/home/toliste/.ssh/known_hosts to get rid of this message.
Offending ECDSA key in /lustre2/home/toliste/.ssh/known_hosts:141
Offending ECDSA key in /lustre2/home/toliste/.ssh/known_hosts:142
Password authentication is disabled to avoid man-in-the-middle attacks.
Password authentication is disabled to avoid man-in-the-middle attacks.
Keyboard-interactive authentication is disabled to avoid man-in-the-middle attacks.
Keyboard-interactive authentication is disabled to avoid man-in-the-middle attacks.
@@@@@@@@@@@@@@@@@@@@@@@@@@@@@@@@@@@@@@@@@@@@@@@@@@@@@@@@@@@
@    WARNING: REMOTE HOST IDENTIFICATION HAS CHANGED!     @
@@@@@@@@@@@@@@@@@@@@@@@@@@@@@@@@@@@@@@@@@@@@@@@@@@@@@@@@@@@
IT IS POSSIBLE THAT SOMEONE IS DOING SOMETHING NASTY!
Someone could be eavesdropping on you right now (man-in-the-middle attack)!
It is also possible that a host key has just been changed.
The fingerprint for the ECDSA key sent by the remote host is
SHA256:iql/71DAvox/0ep0uxNo7tO6d/XSARBjVPu4x7vTmu8.
Please contact your system administrator.
Add correct host key in /lustre2/home/toliste/.ssh/known_hosts to get rid of this message.
Offending ECDSA key in /lustre2/home/toliste/.ssh/known_hosts:140
Password authentication is disabled to avoid man-in-the-middle attacks.
Keyboard-interactive authentication is disabled to avoid man-in-the-middle attacks.
@@@@@@@@@@@@@@@@@@@@@@@@@@@@@@@@@@@@@@@@@@@@@@@@@@@@@@@@@@@
@    WARNING: REMOTE HOST IDENTIFICATION HAS CHANGED!     @
@@@@@@@@@@@@@@@@@@@@@@@@@@@@@@@@@@@@@@@@@@@@@@@@@@@@@@@@@@@
IT IS POSSIBLE THAT SOMEONE IS DOING SOMETHING NASTY!
Someone could be eavesdropping on you right now (man-in-the-middle attack)!
It is also possible that a host key has just been changed.
The fingerprint for the ECDSA key sent by the remote host is
SHA256:ntFBE6nhPx9wISQlOEpOwfSvkRhoW89+cKF14xNTHl8.
Please contact your system administrator.
Add correct host key in /lustre2/home/toliste/.ssh/known_hosts to get rid of this message.
Offending ECDSA key in /lustre2/home/toliste/.ssh/known_hosts:139
Password authentication is disabled to avoid man-in-the-middle attacks.
Keyboard-interactive authentication is disabled to avoid man-in-the-middle attacks.
@@@@@@@@@@@@@@@@@@@@@@@@@@@@@@@@@@@@@@@@@@@@@@@@@@@@@@@@@@@
@    WARNING: REMOTE HOST IDENTIFICATION HAS CHANGED!     @
@@@@@@@@@@@@@@@@@@@@@@@@@@@@@@@@@@@@@@@@@@@@@@@@@@@@@@@@@@@
IT IS POSSIBLE THAT SOMEONE IS DOING SOMETHING NASTY!
Someone could be eavesdropping on you right now (man-in-the-middle attack)!
It is also possible that a host key has just been changed.
The fingerprint for the ECDSA key sent by the remote host is
SHA256:riRvS+NSPMnm0eRsRLnP85zCpheP3PvpkZYo1uiC2BQ.
Please contact your system administrator.
Add correct host key in /lustre2/home/toliste/.ssh/known_hosts to get rid of this message.
Offending ECDSA key in /lustre2/home/toliste/.ssh/known_hosts:138
Password authentication is disabled to avoid man-in-the-middle attacks.
Keyboard-interactive authentication is disabled to avoid man-in-the-middle attacks.
 (Enter /lustre1/prg/gaussian/bin/G16_C01_Linda9.2_SSE4/g16/linda-exe/l502.exel)
 Two-electron integral symmetry not used.
 Closed shell SCF:
 Using DIIS extrapolation, IDIIS=  1040.
 NGot= 11408506880 LenX= 11408246955 LenY= 11408120489
 Requested convergence on RMS density matrix=1.00D-08 within 128 cycles.
 Requested convergence on MAX density matrix=1.00D-06.
 Requested convergence on             energy=1.00D-06.
 No special actions if energy rises.
 Fock matrices will be formed incrementally for  20 cycles.

 Cycle   1  Pass 1  IDiag  1:
 FoFJK:  IHMeth= 1 ICntrl=       0 DoSepK=F KAlg= 0 I1Cent=           0 FoldK=F
 IRaf= 870000000 NMat=       1 IRICut=       1 DoRegI=T DoRafI=F ISym2E= 0 IDoP0=0 IntGTp=1.
 FoFCou: FMM=F IPFlag=           0 FMFlag=      100000 FMFlg1=           0
         NFxFlg=           0 DoJE=F BraDBF=F KetDBF=F FulRan=T
         wScrn=  0.000000 ICntrl=         0 IOpCl=  0 I1Cent=           0 NGrid=           0
         NMat0=    1 NMatS0=      1 NMatT0=    0 NMatD0=    1 NMtDS0=    0 NMtDT0=    0
 Symmetry not used in FoFCou.
 Inv3:  Mode=1 IEnd=    18480972.
 Iteration    1 A*A^-1 deviation from unit magnitude is 8.66D-15 for    618.
 Iteration    1 A*A^-1 deviation from orthogonality  is 3.47D-15 for   2458   1193.
 Iteration    1 A^-1*A deviation from unit magnitude is 8.66D-15 for    618.
 Iteration    1 A^-1*A deviation from orthogonality  is 1.74D-15 for   1469    413.
 E= -911.877766261951    
 DIIS: error= 2.44D-02 at cycle   1 NSaved=   1.
 NSaved= 1 IEnMin= 1 EnMin= -911.877766261951     IErMin= 1 ErrMin= 2.44D-02
 ErrMax= 2.44D-02  0.00D+00 EMaxC= 1.00D-01 BMatC= 3.32D-01 BMatP= 3.32D-01
 IDIUse=3 WtCom= 7.56D-01 WtEn= 2.44D-01
 Coeff-Com:  0.100D+01
 Coeff-En:   0.100D+01
 Coeff:      0.100D+01
 Gap=     0.177 Goal=   None    Shift=    0.000
 GapD=    0.177 DampG=1.000 DampE=0.500 DampFc=0.5000 IDamp=-1.
 Damping current iteration by 5.00D-01
 RMSDP=3.58D-03 MaxDP=9.72D-02              OVMax= 1.45D-01

 Cycle   2  Pass 1  IDiag  1:
 RMSU=  1.72D-03    CP:  9.74D-01
 E= -912.038476568675     Delta-E=       -0.160710306724 Rises=F Damp=T
 DIIS: error= 7.63D-03 at cycle   2 NSaved=   2.
 NSaved= 2 IEnMin= 2 EnMin= -912.038476568675     IErMin= 2 ErrMin= 7.63D-03
 ErrMax= 7.63D-03  0.00D+00 EMaxC= 1.00D-01 BMatC= 2.85D-02 BMatP= 3.32D-01
 IDIUse=3 WtCom= 9.24D-01 WtEn= 7.63D-02
 Coeff-Com: -0.109D+00 0.111D+01
 Coeff-En:   0.000D+00 0.100D+01
 Coeff:     -0.100D+00 0.110D+01
 Gap=     0.186 Goal=   None    Shift=    0.000
 RMSDP=1.25D-03 MaxDP=6.17D-02 DE=-1.61D-01 OVMax= 8.53D-02

 Cycle   3  Pass 1  IDiag  1:
 RMSU=  9.91D-04    CP:  9.54D-01  1.39D+00
 E= -912.181771229548     Delta-E=       -0.143294660873 Rises=F Damp=F
 DIIS: error= 5.72D-03 at cycle   3 NSaved=   3.
 NSaved= 3 IEnMin= 3 EnMin= -912.181771229548     IErMin= 3 ErrMin= 5.72D-03
 ErrMax= 5.72D-03  0.00D+00 EMaxC= 1.00D-01 BMatC= 1.27D-02 BMatP= 2.85D-02
 IDIUse=3 WtCom= 9.43D-01 WtEn= 5.72D-02
 Coeff-Com: -0.109D+00 0.466D+00 0.644D+00
 Coeff-En:   0.000D+00 0.000D+00 0.100D+01
 Coeff:     -0.103D+00 0.439D+00 0.664D+00
 Gap=     0.177 Goal=   None    Shift=    0.000
 RMSDP=4.32D-04 MaxDP=2.04D-02 DE=-1.43D-01 OVMax= 4.48D-02

 Cycle   4  Pass 1  IDiag  1:
 RMSU=  3.16D-04    CP:  9.56D-01  1.42D+00  7.09D-01
 E= -912.191483376101     Delta-E=       -0.009712146553 Rises=F Damp=F
 DIIS: error= 2.49D-03 at cycle   4 NSaved=   4.
 NSaved= 4 IEnMin= 4 EnMin= -912.191483376101     IErMin= 4 ErrMin= 2.49D-03
 ErrMax= 2.49D-03  0.00D+00 EMaxC= 1.00D-01 BMatC= 2.55D-03 BMatP= 1.27D-02
 IDIUse=3 WtCom= 9.75D-01 WtEn= 2.49D-02
 Coeff-Com: -0.355D-01 0.939D-01 0.346D+00 0.595D+00
 Coeff-En:   0.000D+00 0.000D+00 0.163D+00 0.837D+00
 Coeff:     -0.346D-01 0.916D-01 0.342D+00 0.601D+00
 Gap=     0.180 Goal=   None    Shift=    0.000
 RMSDP=1.52D-04 MaxDP=7.89D-03 DE=-9.71D-03 OVMax= 1.85D-02

 Cycle   5  Pass 1  IDiag  1:
 RMSU=  6.32D-05    CP:  9.55D-01  1.42D+00  7.94D-01  6.56D-01
 E= -912.193984577282     Delta-E=       -0.002501201182 Rises=F Damp=F
 DIIS: error= 3.19D-04 at cycle   5 NSaved=   5.
 NSaved= 5 IEnMin= 5 EnMin= -912.193984577282     IErMin= 5 ErrMin= 3.19D-04
 ErrMax= 3.19D-04  0.00D+00 EMaxC= 1.00D-01 BMatC= 8.34D-05 BMatP= 2.55D-03
 IDIUse=3 WtCom= 9.97D-01 WtEn= 3.19D-03
 Coeff-Com: -0.827D-02 0.131D-01 0.103D+00 0.248D+00 0.644D+00
 Coeff-En:   0.000D+00 0.000D+00 0.000D+00 0.000D+00 0.100D+01
 Coeff:     -0.825D-02 0.130D-01 0.103D+00 0.247D+00 0.645D+00
 Gap=     0.180 Goal=   None    Shift=    0.000
 RMSDP=2.70D-05 MaxDP=1.75D-03 DE=-2.50D-03 OVMax= 2.92D-03

 Cycle   6  Pass 1  IDiag  1:
 RMSU=  1.81D-05    CP:  9.55D-01  1.43D+00  7.97D-01  6.90D-01  7.53D-01
 E= -912.194059531718     Delta-E=       -0.000074954436 Rises=F Damp=F
 DIIS: error= 1.07D-04 at cycle   6 NSaved=   6.
 NSaved= 6 IEnMin= 6 EnMin= -912.194059531718     IErMin= 6 ErrMin= 1.07D-04
 ErrMax= 1.07D-04  0.00D+00 EMaxC= 1.00D-01 BMatC= 5.05D-06 BMatP= 8.34D-05
 IDIUse=3 WtCom= 9.99D-01 WtEn= 1.07D-03
 Coeff-Com: -0.143D-02 0.252D-03 0.214D-01 0.644D-01 0.260D+00 0.655D+00
 Coeff-En:   0.000D+00 0.000D+00 0.000D+00 0.000D+00 0.000D+00 0.100D+01
 Coeff:     -0.143D-02 0.252D-03 0.213D-01 0.643D-01 0.260D+00 0.655D+00
 Gap=     0.180 Goal=   None    Shift=    0.000
 RMSDP=6.96D-06 MaxDP=2.98D-04 DE=-7.50D-05 OVMax= 5.99D-04

 Cycle   7  Pass 1  IDiag  1:
 RMSU=  5.84D-06    CP:  9.55D-01  1.43D+00  7.98D-01  6.90D-01  7.96D-01
                    CP:  8.69D-01
 E= -912.194064273080     Delta-E=       -0.000004741362 Rises=F Damp=F
 DIIS: error= 3.32D-05 at cycle   7 NSaved=   7.
 NSaved= 7 IEnMin= 7 EnMin= -912.194064273080     IErMin= 7 ErrMin= 3.32D-05
 ErrMax= 3.32D-05  0.00D+00 EMaxC= 1.00D-01 BMatC= 3.22D-07 BMatP= 5.05D-06
 IDIUse=1 WtCom= 1.00D+00 WtEn= 0.00D+00
 Coeff-Com:  0.396D-03-0.130D-02-0.407D-02-0.519D-02 0.177D-01 0.174D+00
 Coeff-Com:  0.818D+00
 Coeff:      0.396D-03-0.130D-02-0.407D-02-0.519D-02 0.177D-01 0.174D+00
 Coeff:      0.818D+00
 Gap=     0.180 Goal=   None    Shift=    0.000
 RMSDP=3.07D-06 MaxDP=1.13D-04 DE=-4.74D-06 OVMax= 3.84D-04

 Cycle   8  Pass 1  IDiag  1:
 RMSU=  2.24D-06    CP:  9.55D-01  1.43D+00  7.98D-01  6.94D-01  8.03D-01
                    CP:  9.63D-01  9.94D-01
 E= -912.194064615113     Delta-E=       -0.000000342033 Rises=F Damp=F
 DIIS: error= 1.98D-05 at cycle   8 NSaved=   8.
 NSaved= 8 IEnMin= 8 EnMin= -912.194064615113     IErMin= 8 ErrMin= 1.98D-05
 ErrMax= 1.98D-05  0.00D+00 EMaxC= 1.00D-01 BMatC= 1.37D-07 BMatP= 3.22D-07
 IDIUse=1 WtCom= 1.00D+00 WtEn= 0.00D+00
 Coeff-Com:  0.446D-03-0.755D-03-0.543D-02-0.126D-01-0.302D-01-0.168D-01
 Coeff-Com:  0.446D+00 0.619D+00
 Coeff:      0.446D-03-0.755D-03-0.543D-02-0.126D-01-0.302D-01-0.168D-01
 Coeff:      0.446D+00 0.619D+00
 Gap=     0.180 Goal=   None    Shift=    0.000
 RMSDP=1.30D-06 MaxDP=8.47D-05 DE=-3.42D-07 OVMax= 1.66D-04

 Cycle   9  Pass 1  IDiag  1:
 RMSU=  7.48D-07    CP:  9.55D-01  1.43D+00  7.98D-01  6.94D-01  8.10D-01
                    CP:  9.79D-01  1.09D+00  7.02D-01
 E= -912.194064771040     Delta-E=       -0.000000155927 Rises=F Damp=F
 DIIS: error= 2.51D-06 at cycle   9 NSaved=   9.
 NSaved= 9 IEnMin= 9 EnMin= -912.194064771040     IErMin= 9 ErrMin= 2.51D-06
 ErrMax= 2.51D-06  0.00D+00 EMaxC= 1.00D-01 BMatC= 3.86D-09 BMatP= 1.37D-07
 IDIUse=1 WtCom= 1.00D+00 WtEn= 0.00D+00
 Coeff-Com:  0.963D-04-0.115D-03-0.121D-02-0.311D-02-0.946D-02-0.177D-01
 Coeff-Com:  0.699D-01 0.180D+00 0.781D+00
 Coeff:      0.963D-04-0.115D-03-0.121D-02-0.311D-02-0.946D-02-0.177D-01
 Coeff:      0.699D-01 0.180D+00 0.781D+00
 Gap=     0.180 Goal=   None    Shift=    0.000
 RMSDP=3.08D-07 MaxDP=1.09D-05 DE=-1.56D-07 OVMax= 3.29D-05

 Cycle  10  Pass 1  IDiag  1:
 RMSU=  2.15D-07    CP:  9.55D-01  1.43D+00  7.98D-01  6.94D-01  8.11D-01
                    CP:  9.84D-01  1.11D+00  7.71D-01  9.68D-01
 E= -912.194064776462     Delta-E=       -0.000000005422 Rises=F Damp=F
 DIIS: error= 1.00D-06 at cycle  10 NSaved=  10.
 NSaved=10 IEnMin=10 EnMin= -912.194064776462     IErMin=10 ErrMin= 1.00D-06
 ErrMax= 1.00D-06  0.00D+00 EMaxC= 1.00D-01 BMatC= 7.09D-10 BMatP= 3.86D-09
 IDIUse=1 WtCom= 1.00D+00 WtEn= 0.00D+00
 Coeff-Com: -0.137D-04 0.409D-04 0.150D-03 0.260D-03-0.304D-03-0.574D-02
 Coeff-Com: -0.258D-01-0.680D-02 0.298D+00 0.740D+00
 Coeff:     -0.137D-04 0.409D-04 0.150D-03 0.260D-03-0.304D-03-0.574D-02
 Coeff:     -0.258D-01-0.680D-02 0.298D+00 0.740D+00
 Gap=     0.180 Goal=   None    Shift=    0.000
 RMSDP=1.16D-07 MaxDP=5.35D-06 DE=-5.42D-09 OVMax= 1.42D-05

 Cycle  11  Pass 1  IDiag  1:
 RMSU=  8.02D-08    CP:  9.55D-01  1.43D+00  7.98D-01  6.94D-01  8.11D-01
                    CP:  9.86D-01  1.11D+00  7.84D-01  1.05D+00  9.26D-01
 E= -912.194064777321     Delta-E=       -0.000000000859 Rises=F Damp=F
 DIIS: error= 3.67D-07 at cycle  11 NSaved=  11.
 NSaved=11 IEnMin=11 EnMin= -912.194064777321     IErMin=11 ErrMin= 3.67D-07
 ErrMax= 3.67D-07  0.00D+00 EMaxC= 1.00D-01 BMatC= 8.71D-11 BMatP= 7.09D-10
 IDIUse=1 WtCom= 1.00D+00 WtEn= 0.00D+00
 Coeff-Com: -0.194D-04 0.329D-04 0.229D-03 0.560D-03 0.121D-02 0.932D-04
 Coeff-Com: -0.200D-01-0.297D-01 0.165D-01 0.298D+00 0.733D+00
 Coeff:     -0.194D-04 0.329D-04 0.229D-03 0.560D-03 0.121D-02 0.932D-04
 Coeff:     -0.200D-01-0.297D-01 0.165D-01 0.298D+00 0.733D+00
 Gap=     0.180 Goal=   None    Shift=    0.000
 RMSDP=4.06D-08 MaxDP=1.53D-06 DE=-8.59D-10 OVMax= 3.98D-06

 Cycle  12  Pass 1  IDiag  1:
 RMSU=  2.45D-08    CP:  9.55D-01  1.43D+00  7.98D-01  6.94D-01  8.11D-01
                    CP:  9.86D-01  1.11D+00  7.85D-01  1.08D+00  1.02D+00
                    CP:  8.95D-01
 E= -912.194064777437     Delta-E=       -0.000000000116 Rises=F Damp=F
 DIIS: error= 7.31D-08 at cycle  12 NSaved=  12.
 NSaved=12 IEnMin=12 EnMin= -912.194064777437     IErMin=12 ErrMin= 7.31D-08
 ErrMax= 7.31D-08  0.00D+00 EMaxC= 1.00D-01 BMatC= 2.96D-12 BMatP= 8.71D-11
 IDIUse=1 WtCom= 1.00D+00 WtEn= 0.00D+00
 Coeff-Com: -0.400D-05 0.600D-05 0.461D-04 0.122D-03 0.301D-03 0.337D-03
 Coeff-Com: -0.294D-02-0.691D-02-0.984D-02 0.338D-01 0.180D+00 0.805D+00
 Coeff:     -0.400D-05 0.600D-05 0.461D-04 0.122D-03 0.301D-03 0.337D-03
 Coeff:     -0.294D-02-0.691D-02-0.984D-02 0.338D-01 0.180D+00 0.805D+00
 Gap=     0.180 Goal=   None    Shift=    0.000
 RMSDP=8.89D-09 MaxDP=2.93D-07 DE=-1.16D-10 OVMax= 1.15D-06

 Error on total polarization charges =  0.01109
 SCF Done:  E(RM062X) =  -912.194064777     A.U. after   12 cycles
            NFock= 12  Conv=0.89D-08     -V/T= 2.0061
 KE= 9.066925390548D+02 PE=-5.070739585044D+03 EE= 1.781491283134D+03
 Leave Link  502 at Tue Feb  1 06:34:27 2022, MaxMem= 11408506880 cpu:             773.9 elap:              68.5
 (Enter /lustre1/prg/gaussian/bin/G16_C01_Linda9.2_SSE4/g16/l801.exe)
 DoSCS=F DFT=T ScalE2(SS,OS)=  1.000000  1.000000
 Range of M.O.s used for correlation:     1   335
 NBasis=   335 NAE=    69 NBE=    69 NFC=     0 NFV=     0
 NROrb=    335 NOA=    69 NOB=    69 NVA=   266 NVB=   266

 **** Warning!!: The largest alpha MO coefficient is  0.11761209D+02

 Leave Link  801 at Tue Feb  1 06:34:27 2022, MaxMem= 11408506880 cpu:               0.4 elap:               0.0
@@@@@@@@@@@@@@@@@@@@@@@@@@@@@@@@@@@@@@@@@@@@@@@@@@@@@@@@@@@
@    WARNING: REMOTE HOST IDENTIFICATION HAS CHANGED!     @
@@@@@@@@@@@@@@@@@@@@@@@@@@@@@@@@@@@@@@@@@@@@@@@@@@@@@@@@@@@
IT IS POSSIBLE THAT SOMEONE IS DOING SOMETHING NASTY!
Someone could be eavesdropping on you right now (man-in-the-middle attack)!
It is also possible that a host key has just been changed.
The fingerprint for the ECDSA key sent by the remote host is
SHA256:ntFBE6nhPx9wISQlOEpOwfSvkRhoW89+cKF14xNTHl8.
Please contact your system administrator.
Add correct host key in /lustre2/home/toliste/.ssh/known_hosts to get rid of this message.
Offending ECDSA key in /lustre2/home/toliste/.ssh/known_hosts:139
Password authentication is disabled to avoid man-in-the-middle attacks.
Keyboard-interactive authentication is disabled to avoid man-in-the-middle attacks.
@@@@@@@@@@@@@@@@@@@@@@@@@@@@@@@@@@@@@@@@@@@@@@@@@@@@@@@@@@@
@    WARNING: REMOTE HOST IDENTIFICATION HAS CHANGED!     @
@@@@@@@@@@@@@@@@@@@@@@@@@@@@@@@@@@@@@@@@@@@@@@@@@@@@@@@@@@@
IT IS POSSIBLE THAT SOMEONE IS DOING SOMETHING NASTY!
Someone could be eavesdropping on you right now (man-in-the-middle attack)!
It is also possible that a host key has just been changed.
The fingerprint for the ECDSA key sent by the remote host is
SHA256:riRvS+NSPMnm0eRsRLnP85zCpheP3PvpkZYo1uiC2BQ.
Please contact your system administrator.
Add correct host key in /lustre2/home/toliste/.ssh/known_hosts to get rid of this message.
Offending ECDSA key in /lustre2/home/toliste/.ssh/known_hosts:138
Password authentication is disabled to avoid man-in-the-middle attacks.
Keyboard-interactive authentication is disabled to avoid man-in-the-middle attacks.
@@@@@@@@@@@@@@@@@@@@@@@@@@@@@@@@@@@@@@@@@@@@@@@@@@@@@@@@@@@
@    WARNING: REMOTE HOST IDENTIFICATION HAS CHANGED!     @
@@@@@@@@@@@@@@@@@@@@@@@@@@@@@@@@@@@@@@@@@@@@@@@@@@@@@@@@@@@
IT IS POSSIBLE THAT SOMEONE IS DOING SOMETHING NASTY!
Someone could be eavesdropping on you right now (man-in-the-middle attack)!
It is also possible that a host key has just been changed.
The fingerprint for the ECDSA key sent by the remote host is
SHA256:8EB/dta3zL65mO1pv+8d0wE2OT2buqUpy/g0J04Imvc.
Please contact your system administrator.
Add correct host key in /lustre2/home/toliste/.ssh/known_hosts to get rid of this message.
Offending ECDSA key in /lustre2/home/toliste/.ssh/known_hosts:142
Password authentication is disabled to avoid man-in-the-middle attacks.
Keyboard-interactive authentication is disabled to avoid man-in-the-middle attacks.
@@@@@@@@@@@@@@@@@@@@@@@@@@@@@@@@@@@@@@@@@@@@@@@@@@@@@@@@@@@
@    WARNING: REMOTE HOST IDENTIFICATION HAS CHANGED!     @
@@@@@@@@@@@@@@@@@@@@@@@@@@@@@@@@@@@@@@@@@@@@@@@@@@@@@@@@@@@
IT IS POSSIBLE THAT SOMEONE IS DOING SOMETHING NASTY!
Someone could be eavesdropping on you right now (man-in-the-middle attack)!
It is also possible that a host key has just been changed.
The fingerprint for the ECDSA key sent by the remote host is
SHA256:M7N4+PsNku+I1HYDN4P2eKdo7KDrdu2gTV8W6I04mak.
Please contact your system administrator.
Add correct host key in /lustre2/home/toliste/.ssh/known_hosts to get rid of this message.
Offending ECDSA key in /lustre2/home/toliste/.ssh/known_hosts:141
Password authentication is disabled to avoid man-in-the-middle attacks.
Keyboard-interactive authentication is disabled to avoid man-in-the-middle attacks.
@@@@@@@@@@@@@@@@@@@@@@@@@@@@@@@@@@@@@@@@@@@@@@@@@@@@@@@@@@@
@    WARNING: REMOTE HOST IDENTIFICATION HAS CHANGED!     @
@@@@@@@@@@@@@@@@@@@@@@@@@@@@@@@@@@@@@@@@@@@@@@@@@@@@@@@@@@@
IT IS POSSIBLE THAT SOMEONE IS DOING SOMETHING NASTY!
Someone could be eavesdropping on you right now (man-in-the-middle attack)!
It is also possible that a host key has just been changed.
The fingerprint for the ECDSA key sent by the remote host is
SHA256:iql/71DAvox/0ep0uxNo7tO6d/XSARBjVPu4x7vTmu8.
Please contact your system administrator.
Add correct host key in /lustre2/home/toliste/.ssh/known_hosts to get rid of this message.
Offending ECDSA key in /lustre2/home/toliste/.ssh/known_hosts:140
Password authentication is disabled to avoid man-in-the-middle attacks.
Keyboard-interactive authentication is disabled to avoid man-in-the-middle attacks.
@@@@@@@@@@@@@@@@@@@@@@@@@@@@@@@@@@@@@@@@@@@@@@@@@@@@@@@@@@@
@    WARNING: REMOTE HOST IDENTIFICATION HAS CHANGED!     @
@@@@@@@@@@@@@@@@@@@@@@@@@@@@@@@@@@@@@@@@@@@@@@@@@@@@@@@@@@@
IT IS POSSIBLE THAT SOMEONE IS DOING SOMETHING NASTY!
Someone could be eavesdropping on you right now (man-in-the-middle attack)!
It is also possible that a host key has just been changed.
The fingerprint for the ECDSA key sent by the remote host is
SHA256:r5soQIxRnmk29FTE5JOdituPXEMGmulv/v/xkbS9pcA.
Please contact your system administrator.
Add correct host key in /lustre2/home/toliste/.ssh/known_hosts to get rid of this message.
Offending ECDSA key in /lustre2/home/toliste/.ssh/known_hosts:126
Password authentication is disabled to avoid man-in-the-middle attacks.
Keyboard-interactive authentication is disabled to avoid man-in-the-middle attacks.
 (Enter /lustre1/prg/gaussian/bin/G16_C01_Linda9.2_SSE4/g16/linda-exe/l1101.exel)
 Using compressed storage, NAtomX=    31.
 Will process     32 centers per pass.
 Leave Link 1101 at Tue Feb  1 06:34:34 2022, MaxMem= 11408506880 cpu:              53.6 elap:               4.7
 (Enter /lustre1/prg/gaussian/bin/G16_C01_Linda9.2_SSE4/g16/l1102.exe)
 Symmetrizing basis deriv contribution to polar:
 IMax=3 JMax=2 DiffMx= 0.00D+00
 Leave Link 1102 at Tue Feb  1 06:34:35 2022, MaxMem= 11408506880 cpu:               1.3 elap:               0.1
@@@@@@@@@@@@@@@@@@@@@@@@@@@@@@@@@@@@@@@@@@@@@@@@@@@@@@@@@@@
@@@@@@@@@@@@@@@@@@@@@@@@@@@@@@@@@@@@@@@@@@@@@@@@@@@@@@@@@@@
@    WARNING: REMOTE HOST IDENTIFICATION HAS CHANGED!     @
@    WARNING: REMOTE HOST IDENTIFICATION HAS CHANGED!     @
@@@@@@@@@@@@@@@@@@@@@@@@@@@@@@@@@@@@@@@@@@@@@@@@@@@@@@@@@@@
@@@@@@@@@@@@@@@@@@@@@@@@@@@@@@@@@@@@@@@@@@@@@@@@@@@@@@@@@@@
IT IS POSSIBLE THAT SOMEONE IS DOING SOMETHING NASTY!
IT IS POSSIBLE THAT SOMEONE IS DOING SOMETHING NASTY!
Someone could be eavesdropping on you right now (man-in-the-middle attack)!
Someone could be eavesdropping on you right now (man-in-the-middle attack)!
It is also possible that a host key has just been changed.
It is also possible that a host key has just been changed.
@@@@@@@@@@@@@@@@@@@@@@@@@@@@@@@@@@@@@@@@@@@@@@@@@@@@@@@@@@@
The fingerprint for the ECDSA key sent by the remote host is
SHA256:8EB/dta3zL65mO1pv+8d0wE2OT2buqUpy/g0J04Imvc.
The fingerprint for the ECDSA key sent by the remote host is
SHA256:riRvS+NSPMnm0eRsRLnP85zCpheP3PvpkZYo1uiC2BQ.
@    WARNING: REMOTE HOST IDENTIFICATION HAS CHANGED!     @
Please contact your system administrator.
Please contact your system administrator.
@@@@@@@@@@@@@@@@@@@@@@@@@@@@@@@@@@@@@@@@@@@@@@@@@@@@@@@@@@@
Add correct host key in /lustre2/home/toliste/.ssh/known_hosts to get rid of this message.
Add correct host key in /lustre2/home/toliste/.ssh/known_hosts to get rid of this message.
IT IS POSSIBLE THAT SOMEONE IS DOING SOMETHING NASTY!
Offending ECDSA key in /lustre2/home/toliste/.ssh/known_hosts:142
Someone could be eavesdropping on you right now (man-in-the-middle attack)!
Offending ECDSA key in /lustre2/home/toliste/.ssh/known_hosts:138
Password authentication is disabled to avoid man-in-the-middle attacks.
It is also possible that a host key has just been changed.
Password authentication is disabled to avoid man-in-the-middle attacks.
Keyboard-interactive authentication is disabled to avoid man-in-the-middle attacks.
The fingerprint for the ECDSA key sent by the remote host is
SHA256:M7N4+PsNku+I1HYDN4P2eKdo7KDrdu2gTV8W6I04mak.
Keyboard-interactive authentication is disabled to avoid man-in-the-middle attacks.
Please contact your system administrator.
Add correct host key in /lustre2/home/toliste/.ssh/known_hosts to get rid of this message.
Offending ECDSA key in /lustre2/home/toliste/.ssh/known_hosts:141
Password authentication is disabled to avoid man-in-the-middle attacks.
Keyboard-interactive authentication is disabled to avoid man-in-the-middle attacks.
@@@@@@@@@@@@@@@@@@@@@@@@@@@@@@@@@@@@@@@@@@@@@@@@@@@@@@@@@@@
@    WARNING: REMOTE HOST IDENTIFICATION HAS CHANGED!     @
@@@@@@@@@@@@@@@@@@@@@@@@@@@@@@@@@@@@@@@@@@@@@@@@@@@@@@@@@@@
IT IS POSSIBLE THAT SOMEONE IS DOING SOMETHING NASTY!
Someone could be eavesdropping on you right now (man-in-the-middle attack)!
It is also possible that a host key has just been changed.
The fingerprint for the ECDSA key sent by the remote host is
SHA256:ntFBE6nhPx9wISQlOEpOwfSvkRhoW89+cKF14xNTHl8.
Please contact your system administrator.
Add correct host key in /lustre2/home/toliste/.ssh/known_hosts to get rid of this message.
Offending ECDSA key in /lustre2/home/toliste/.ssh/known_hosts:139
Password authentication is disabled to avoid man-in-the-middle attacks.
Keyboard-interactive authentication is disabled to avoid man-in-the-middle attacks.
@@@@@@@@@@@@@@@@@@@@@@@@@@@@@@@@@@@@@@@@@@@@@@@@@@@@@@@@@@@
@    WARNING: REMOTE HOST IDENTIFICATION HAS CHANGED!     @
@@@@@@@@@@@@@@@@@@@@@@@@@@@@@@@@@@@@@@@@@@@@@@@@@@@@@@@@@@@
IT IS POSSIBLE THAT SOMEONE IS DOING SOMETHING NASTY!
Someone could be eavesdropping on you right now (man-in-the-middle attack)!
It is also possible that a host key has just been changed.
The fingerprint for the ECDSA key sent by the remote host is
SHA256:iql/71DAvox/0ep0uxNo7tO6d/XSARBjVPu4x7vTmu8.
Please contact your system administrator.
Add correct host key in /lustre2/home/toliste/.ssh/known_hosts to get rid of this message.
Offending ECDSA key in /lustre2/home/toliste/.ssh/known_hosts:140
Password authentication is disabled to avoid man-in-the-middle attacks.
Keyboard-interactive authentication is disabled to avoid man-in-the-middle attacks.
@@@@@@@@@@@@@@@@@@@@@@@@@@@@@@@@@@@@@@@@@@@@@@@@@@@@@@@@@@@
@    WARNING: REMOTE HOST IDENTIFICATION HAS CHANGED!     @
@@@@@@@@@@@@@@@@@@@@@@@@@@@@@@@@@@@@@@@@@@@@@@@@@@@@@@@@@@@
IT IS POSSIBLE THAT SOMEONE IS DOING SOMETHING NASTY!
Someone could be eavesdropping on you right now (man-in-the-middle attack)!
It is also possible that a host key has just been changed.
The fingerprint for the ECDSA key sent by the remote host is
SHA256:r5soQIxRnmk29FTE5JOdituPXEMGmulv/v/xkbS9pcA.
Please contact your system administrator.
Add correct host key in /lustre2/home/toliste/.ssh/known_hosts to get rid of this message.
Offending ECDSA key in /lustre2/home/toliste/.ssh/known_hosts:126
Password authentication is disabled to avoid man-in-the-middle attacks.
Keyboard-interactive authentication is disabled to avoid man-in-the-middle attacks.
 (Enter /lustre1/prg/gaussian/bin/G16_C01_Linda9.2_SSE4/g16/linda-exe/l1110.exel)
 Forming Gx(P) for the SCF density, NAtomX=    31.
 Integral derivatives from FoFJK, PRISM(SPDF).
 Do as many integral derivatives as possible in FoFJK.
 G2DrvN: MDV=   11408503551.
 G2DrvN: will do    32 centers at a time, making    1 passes.
 Calling FoFCou, ICntrl=  3107 FMM=F I1Cent=   0 AccDes= 0.00D+00.
 FoFJK:  IHMeth= 1 ICntrl=    3107 DoSepK=F KAlg= 0 I1Cent=           0 FoldK=F
 IRaf=         0 NMat=       1 IRICut=       1 DoRegI=T DoRafI=F ISym2E= 0 IDoP0=0 IntGTp=1.
 FoFCou: FMM=F IPFlag=           0 FMFlag=      100000 FMFlg1=           0
         NFxFlg=           0 DoJE=F BraDBF=F KetDBF=F FulRan=T
[...]
 829,0.00017502,0.00001257,-0.00003258,-0.00000109,0.00017011,-0.000007
 86,-0.00018282,0.00004103,0.00003062,-0.00003331,0.00003401,-0.0000415
 0,-0.00003015,0.00551059,0.00165743,0.00197496,-0.00070149,0.01348923,
 -0.00786501,-0.00171696,-0.00191976,-0.00120715,0.02262006,0.15144979,
 -0.19441889,-0.02697603,-0.16521609,0.19769808,0.00024830,-0.00002805,
 -0.00010153,-0.00009868,0.00012073,-0.00002150,-0.00005736,0.00003443,
 -0.00009389,-0.00001543,-0.00006880,0.00000416,-0.00015868,0.00019246,
 0.00011033,-0.00001674,-0.00000782,-0.00000241,0.00010192,-0.00008262,
 0.00001285,-0.00002893,-0.00015641,0.00012964,0.00010303,-0.00024941,0
 .00024727,-0.00020710,0.00078116,-0.00102037,0.00007588,-0.00015859,0.
 00001931,0.00006594,-0.00000720,0.00019256,0.00001410,0.00000811,0.000
 00029,-0.00020823,0.00010954,0.00019076,0.00000431,0.00000511,0.000019
 73,-0.00046392,-0.00001377,-0.00046361,0.00006853,-0.00009714,-0.00001
 019,0.00007163,0.00001894,0.00044231,-0.00008307,-0.00005432,0.0000425
 1,-0.00006861,0.00007177,0.00003677,-0.01219280,0.02063971,-0.01665738
 ,-0.04228701,0.00890685,0.03031864,-0.00086357,0.00126093,0.00525403,-
 0.22841496,0.15499234,-0.01817608,0.00602683,-0.00422504,0.00210642,0.
 60217037,-0.00008861,0.00001188,-0.00011215,0.00010099,0.00012879,-0.0
 0014558,-0.00013084,-0.00009079,-0.00006476,0.00001690,0.00006644,-0.0
 0003007,-0.00015347,-0.00034659,0.00006317,0.00000416,0.00000492,-0.00
 000740,0.00046719,0.00033498,0.00079499,0.00019289,0.00030400,-0.00036
 169,-0.00078391,0.00029612,-0.00030369,0.00052776,-0.00315315,0.000752
 30,-0.00016325,0.00012942,0.00008674,-0.00006101,-0.00008178,-0.000159
 48,-0.00003125,0.00006658,0.00001168,0.00010417,-0.00035400,-0.0001691
 6,-0.00000662,0.00000501,0.00000159,0.00062628,0.00029894,0.00064719,-
 0.00037585,0.00032862,0.00011801,-0.00008340,0.00033126,-0.00081540,0.
 00002001,-0.00000035,0.00002203,0.00001666,-0.00000007,0.00002338,0.02
 221574,-0.05326584,0.02843445,0.04613057,0.02916923,-0.05577418,0.0008
 1843,0.00358554,0.00282096,0.10389696,-0.21716561,0.05918786,0.0159896
 8,-0.00918489,0.00041040,-0.15829899,0.49576673,-0.00009395,0.00001480
 ,0.00018943,-0.00002255,-0.00012961,0.00008186,0.00015720,0.00001268,0
 .00008250,-0.00000824,-0.00000891,0.00001516,0.00019020,0.00015322,-0.
 00012670,0.00001262,0.00000411,0.00000908,-0.00032147,-0.00007485,-0.0
 0059663,-0.00002847,-0.00012718,0.00010846,0.00044983,-0.00000973,0.00
 025580,-0.00095159,0.00099716,-0.00076776,0.00002706,0.00008074,-0.000
 10950,-0.00004088,0.00003655,-0.00001706,0.00000973,-0.00006752,-0.000
 01755,0.00008526,0.00022753,-0.00005270,0.00000271,-0.00000609,-0.0000
 1173,-0.00012395,-0.00008938,-0.00001591,0.00013279,-0.00019270,-0.000
 00579,0.00022809,-0.00025967,0.00028550,0.00004146,0.00004041,-0.00005
 385,0.00003303,-0.00005327,-0.00005139,-0.01667989,0.02649326,-0.02068
 621,-0.00449891,-0.02664788,0.03522193,0.00558351,0.00270627,0.0010984
 5,0.02781817,0.02118768,-0.10640840,-0.01606484,0.01530629,0.00208864,
 -0.20678401,-0.20616592,0.49218391,0.00025570,-0.00002756,-0.00003177,
 -0.00000317,-0.00046774,0.00009352,-0.00002470,0.00005379,-0.00012181,
 -0.00001551,0.00002832,0.00001540,-0.00009329,0.00019538,0.00011352,-0
 .00001233,-0.00000502,0.00000168,-0.00009703,-0.00009352,-0.00037979,-
 0.00008143,-0.00019378,0.00024921,0.00005831,0.00000591,0.00005563,0.0
 0217615,0.00594143,-0.00184478,0.00034363,-0.00040517,-0.00026777,0.00
 035833,0.00009134,0.00048793,0.00005065,0.00000901,-0.00000452,-0.0004
 4682,0.00019243,0.00050765,0.00000880,-0.00001263,0.00001012,-0.001030
 03,-0.00018224,-0.00137645,0.00030451,-0.00012002,0.00017688,0.0000623
 6,-0.00056930,0.00199237,-0.00007149,-0.00004158,0.00002112,-0.0000615
 0,0.00005288,0.00001694,-0.04352356,0.04448989,-0.00337109,-0.02289790
 ,-0.01859501,0.02914430,-0.00018119,-0.00081953,0.00031505,0.04157605,
 0.00134518,-0.02685777,-0.00125111,0.00530046,0.00157266,-0.11654049,0
 .03169101,0.01025270,0.58980202,0.00023576,-0.00001424,0.00024158,0.00
 055475,0.00029442,0.00016873,0.00003419,-0.00000020,-0.00027722,0.0000
 3018,-0.00010324,0.00003430,-0.00009647,0.00023508,0.00010095,0.000007
 30,-0.00000756,0.00000327,0.00006222,-0.00013644,-0.00004222,-0.000089
 86,-0.00021338,0.00004791,0.00033473,0.00032568,-0.00129245,0.00659024
 ,-0.00003851,0.00285532,0.00005750,-0.00035998,-0.00011457,-0.00001561
 ,-0.00001024,0.00027963,0.00001853,0.00004903,-0.00000804,-0.00016658,
 0.00009215,0.00009012,0.00000741,0.00001163,0.00001215,-0.00078572,0.0
 0009914,-0.00062068,0.00016343,-0.00017728,-0.00007962,-0.00023026,-0.
 00014673,0.00144386,-0.00005457,-0.00000661,-0.00004036,-0.00005412,0.
 00001859,-0.00003731,0.00645421,0.02737682,-0.02602448,-0.01823564,-0.
 01579061,0.02153820,-0.00081582,-0.00017063,-0.00009802,0.03772372,-0.
 03455356,0.01072303,0.00506812,0.00065549,0.00237669,-0.01813329,-0.21
 829709,0.15544657,-0.19650124,0.53492592,-0.00019506,0.00001923,0.0000
 9153,-0.00027311,-0.00052385,-0.00005974,0.00023984,0.00001260,0.00028
 682,0.00001774,0.00018914,-0.00001801,0.00018337,-0.00044240,-0.000163
 82,0.00001641,0.00000561,-0.00000242,0.00003908,0.00041460,0.00037112,
 0.00012635,0.00029717,-0.00030173,0.00060585,-0.00062895,-0.00031365,-
 0.00098027,0.00147370,0.00558652,-0.00003652,-0.00011334,0.00034250,-0
 .00020140,-0.00004931,-0.00031059,-0.00001880,0.00009482,0.00001544,0.
 00017461,-0.00038082,-0.00021900,-0.00000151,-0.00000142,-0.00001354,0
 .00042045,0.00032417,0.00062103,-0.00016485,0.00024416,-0.00003268,-0.
 00045747,0.00091040,-0.00087280,0.00007075,0.00004138,-0.00003871,0.00
 006285,-0.00005699,-0.00003320,0.03195216,-0.05076533,0.03269855,0.029
 49633,0.02258085,-0.04977422,0.00027201,-0.00008851,-0.00106853,-0.061
 57142,0.03872344,0.01861863,0.00198194,0.00212826,0.00414706,0.0562628
 9,0.11576531,-0.21709340,-0.16954500,-0.21069132,0.46492050,0.00014751
 ,-0.00001635,-0.00010758,-0.00002280,-0.00006637,-0.00005207,-0.000095
 23,0.00000745,-0.00011095,-0.00000641,0.00000358,-0.00000794,-0.000166
 36,0.00002589,0.00010242,-0.00000955,-0.00000122,-0.00000370,0.0001690
 3,0.00000499,0.00011533,0.00000005,-0.00002910,0.00001465,-0.00027016,
 -0.00001746,0.00016178,0.00010149,0.00097242,-0.00093282,0.00003269,-0
 .00004176,-0.00004134,0.00010370,0.00000567,0.00014856,0.00000251,0.00
 000786,0.00000374,-0.00017197,-0.00000061,0.00014043,0.00000084,-0.000
 00139,0.00001174,-0.00011736,-0.00000742,-0.00023736,-0.00000411,-0.00
 001597,-0.00002068,0.00002502,-0.00010432,0.00025096,-0.00004878,-0.00
 003668,0.00003490,-0.00004215,0.00004689,0.00003207,-0.00085844,0.0010
 6601,0.00576970,-0.00025441,-0.00079266,0.00012900,-0.00027793,-0.0002
 4102,-0.00042028,0.00293145,0.00101157,0.00264414,0.00014863,-0.000209
 90,0.00010099,0.00571914,-0.00360781,0.00200606,-0.19766634,0.14941699
 ,-0.01380181,0.20279384,-0.00001978,0.00000087,0.00003301,0.00003030,-
 0.00001303,0.00000672,0.00002104,0.00001149,-0.00000975,0.00000255,-0.
 00000110,0.00000061,0.00000902,0.00002412,-0.00001379,0.00000327,0.000
 00017,0.00000102,-0.00000721,-0.00002533,-0.00006870,-0.00001924,-0.00
 003029,-0.00000195,0.00005122,-0.00008556,-0.00001573,-0.00008988,0.00
 029712,0.00007728,0.00000663,-0.00001611,-0.00004296,0.00001498,0.0000
 1485,0.00000773,0.00000071,-0.00000332,-0.00000276,-0.00000870,0.00001
 467,0.00000351,0.00000091,-0.00000138,-0.00000316,0.00000600,-0.000033
 29,-0.00003572,0.00002160,-0.00001076,0.00001209,0.00005300,-0.0000516
 5,0.00005647,0.00000879,0.00000785,-0.00001048,0.00000655,-0.00000990,
 -0.00000871,0.00096876,0.00383993,0.00271291,-0.00088983,-0.00025444,0
 .00010361,-0.00022238,-0.00039130,-0.00047191,0.00072428,0.00062863,0.
 00565529,0.00076669,-0.00061376,-0.00001920,0.01596304,-0.00920434,-0.
 00022893,0.14955184,-0.19541573,0.02671241,-0.16226024,0.19928206,-0.0
 0003799,0.00000431,0.00005905,0.00009359,0.00010470,0.00003626,0.00003
 640,0.00000355,-0.00000669,0.00000860,-0.00002280,0.00000609,0.0000359
 6,0.00003452,-0.00002154,0.00000485,-0.00000022,0.00000170,-0.00002640
 ,-0.00006071,-0.00008286,-0.00000908,-0.00001817,0.00000097,0.00015527
 ,0.00001739,-0.00016464,0.00060922,-0.00051862,0.00038739,-0.00000826,
 0.00000277,-0.00004005,-0.00000131,0.00000409,-0.00000884,-0.00000075,
 -0.00000288,-0.00000362,0.00001214,0.00001240,-0.00002504,0.00000082,0
 .00000081,-0.00000487,0.00002977,-0.00004871,0.00000135,0.00001234,-0.
 00000208,0.00001231,0.00000321,-0.00003040,0.00003480,0.00001409,0.000
 01380,-0.00001638,0.00001181,-0.00001723,-0.00001478,0.00507439,0.0024
 5397,0.00102085,0.00013639,0.00009566,-0.00118081,-0.00040214,-0.00046
 697,-0.00035250,0.00306522,0.00548608,0.00002288,-0.00083383,0.0007260
 4,-0.00004302,-0.01609261,0.01552400,0.00235011,-0.01434881,0.02650168
 ,-0.05219946,0.01172254,-0.03192539,0.04694955,-0.00038592,0.00005805,
 -0.00009003,-0.00239372,-0.00088807,-0.00052726,0.00067802,0.00000944,
 0.00150444,-0.00007429,0.00025095,-0.00007956,0.00087235,-0.00070856,-
 0.00084833,0.00000437,-0.00000634,-0.00000319,-0.00060831,0.00055445,0
 .00000039,0.00022325,0.00050479,-0.00045248,0.00261286,-0.00040127,0.0
 0394047,-0.03132007,0.01529365,0.00840893,-0.00034136,-0.00042511,0.00
 168993,-0.00124411,0.00000119,-0.00131712,-0.00000714,-0.00003965,0.00
 001994,0.00128874,0.00023453,-0.00096351,-0.00000389,-0.00003411,-0.00
 000653,0.00063454,0.00071714,0.00171504,0.00003978,-0.00034588,0.00011
 692,-0.00079360,0.00248816,-0.00512981,0.00011996,0.00003998,-0.000022
 41,0.00011064,-0.00006265,-0.00001503,-0.20390238,0.09855025,0.0171818
 1,0.03946823,0.03798626,-0.05570779,0.00257246,0.00013263,0.00278201,-
 0.06267897,0.02513002,0.01894051,-0.00120457,0.00030937,-0.00012655,0.
 02433585,-0.06584749,0.04744388,-0.25621217,0.04368472,0.10895366,-0.0
 1135013,-0.00194220,0.01412519,0.55072510,0.00015329,-0.00004355,-0.00
 043681,-0.00035160,-0.00042744,0.00000635,-0.00037341,0.00002664,-0.00
 014485,-0.00006109,0.00000858,0.00000021,-0.00024451,0.00018304,0.0002
 9786,-0.00004005,-0.00001670,-0.00000974,0.00010671,0.00011379,0.00026
 206,-0.00004459,-0.00024649,0.00025663,-0.00221828,0.00040918,0.000484
 76,0.00290899,0.00449394,-0.00501767,0.00047277,-0.00003562,-0.0005033
 3,0.00078334,0.00019660,0.00059128,0.00004208,0.00004235,0.00003163,-0
 .00066646,-0.00020975,0.00081469,-0.00000056,-0.00000457,0.00001713,-0
 .00057755,-0.00069179,-0.00190865,0.00062440,0.00002631,-0.00091069,-0
 .00043849,-0.00127820,0.00240031,-0.00006710,-0.00008049,0.00011546,-0
 .00004801,0.00009363,0.00010374,0.14437351,-0.20405190,0.02167233,0.00
 128754,-0.03507894,0.03894831,0.00076541,0.00050802,0.00511892,0.02622
 424,-0.01542969,-0.01213267,0.00029258,-0.00024481,-0.00073755,-0.0281
 2260,0.02859988,0.00232565,-0.00546806,-0.10756057,0.04217931,0.017565
 41,0.00382201,-0.01384330,-0.14449021,0.52442001,-0.00062307,0.0000731
 0,0.00058032,0.00043047,0.00095918,0.00058967,0.00050796,-0.00006480,0
 .00048462,0.00003612,-0.00015079,0.00008284,0.00092102,0.00004475,-0.0
 0054778,0.00003042,0.00001508,0.00002548,-0.00101193,-0.00026294,-0.00
 092476,0.00008866,0.00012009,0.00014408,0.00251330,0.00003381,-0.00185
 155,0.01311845,-0.01359326,0.00861528,-0.00041098,0.00052282,0.0009621
 2,-0.00089023,0.00005316,-0.00119226,0.00004222,-0.00022001,0.00001288
 ,0.00162456,0.00046487,-0.00079760,-0.00002286,-0.00001195,-0.00002616
 ,0.00057470,-0.00123575,-0.00067909,0.00077671,-0.00097628,-0.00170633
 ,-0.00037852,-0.00017077,-0.00270768,0.00019719,0.00016449,-0.00016759
 ,0.00018735,-0.00021449,-0.00015564,-0.01715712,0.05401245,-0.10614980
 ,-0.02528100,0.01074230,0.01829867,0.00221379,0.00547867,-0.00036917,0
 .01926586,-0.01206442,-0.01033407,-0.00009546,-0.00082008,-0.00024249,
 0.01257343,0.03076860,-0.03083975,0.15575898,0.00580468,-0.18997378,-0
 .00417968,0.00144091,0.00545725,-0.18658732,-0.23789566,0.50263012,-0.
 00018698,0.00001473,-0.00012197,0.00014096,0.00014758,0.00002767,-0.00
 011309,-0.00001625,-0.00009530,0.00000122,-0.00002605,-0.00000241,-0.0
 0007171,0.00002088,0.00006985,-0.00000104,0.00000295,0.00000016,0.0000
 8007,-0.00002632,0.00005352,0.00001625,0.00000720,0.00001083,-0.000375
 16,0.00000475,0.00001480,0.00026628,-0.00038208,-0.00269037,-0.0000043
 9,-0.00002241,0.00007892,0.00003609,0.00001815,-0.00016643,-0.00000916
 ,0.00001094,0.00000100,0.00003990,-0.00005886,-0.00004494,0.00000267,0
 .00000049,-0.00002018,0.00044230,0.00000921,0.00044430,0.00001495,-0.0
 0004930,-0.00010321,-0.00011946,-0.00003920,-0.00023372,0.00004488,0.0
 0001545,0.00001455,0.00004386,-0.00002827,0.00001662,0.00404477,0.0152
 1161,-0.01399793,-0.00147356,0.00477852,0.00173365,0.00024300,0.000867
 54,-0.00072488,-0.00115752,0.00010731,0.00006840,-0.00014384,-0.000398
 92,-0.00038734,-0.00167696,0.00247984,0.00502700,0.00289430,-0.0175063
 3,0.01684104,-0.00020649,-0.00129400,-0.00200763,-0.05435238,-0.014061
 47,0.02394122,0.05162807,0.00025625,-0.00001551,-0.00002675,0.00018076
 ,0.00009642,-0.00005353,-0.00016909,-0.00002871,-0.00024822,0.00000139
 ,-0.00001951,-0.00000649,-0.00025074,0.00001335,0.00016103,-0.00000548
 ,0.00000061,-0.00000444,0.00022136,-0.00003093,0.00022420,-0.00001701,
 -0.00001441,-0.00002469,-0.00053388,0.00016187,-0.00014042,-0.00137787
 ,-0.00100208,-0.00043249,-0.00048008,0.00019255,0.00002310,-0.00018167
 ,-0.00006732,-0.00006148,-0.00004276,-0.00004129,-0.00000647,0.0000600
 3,0.00010208,-0.00021185,-0.00000605,0.00000848,0.00002872,0.00048929,
 0.00015232,0.00035916,-0.00034022,-0.00054650,-0.00041931,0.00062127,-
 0.00013910,-0.00088438,-0.00008503,-0.00004700,0.00003255,-0.00008433,
 0.00007078,0.00002741,-0.00435125,-0.00939846,0.01519366,0.00527931,0.
 00052126,0.00147926,-0.00012782,-0.00046326,0.00086308,0.00011647,-0.0
 0016650,-0.00080831,-0.00038592,-0.00039250,-0.00034861,0.00224199,0.0
 0357572,0.00191808,0.00200663,0.00439047,-0.00175500,-0.00153840,-0.00
 108399,-0.00170140,-0.01270438,-0.19736815,0.15133373,0.01112526,0.201
 48935,0.00009896,-0.00001223,-0.00010769,0.00009268,0.00004419,-0.0000
 5349,-0.00015733,-0.00000218,-0.00016321,-0.00000335,-0.00001175,-0.00
 000741,-0.00019427,0.00002103,0.00014654,-0.00000829,-0.00000004,-0.00
 000393,0.00018590,-0.00002625,0.00020889,0.00000699,-0.00000825,0.0000
 1211,-0.00065967,0.00013926,0.00001472,-0.00016421,-0.00195782,-0.0016
 6317,-0.00021882,0.00031698,-0.00012215,0.00017030,0.00001521,-0.00000
 227,-0.00001094,0.00000273,0.00000996,-0.00000726,-0.00013552,-0.00000
 120,-0.00000848,0.00000226,0.00001048,0.00013454,-0.00073747,-0.000691
 02,0.00008003,-0.00035573,-0.00040853,0.00043722,-0.00035590,-0.000120
 44,-0.00003922,-0.00003073,0.00003911,-0.00003946,0.00004135,0.0000328
 0,0.00140375,0.00079151,0.00154494,0.00120233,0.00205944,0.00362816,0.
 00021392,0.00009284,0.00011736,0.00001565,-0.00081782,-0.00009990,-0.0
 0037017,-0.00033914,-0.00048644,0.00535817,0.00153554,0.00196530,-0.00
 054729,0.01362384,-0.00768169,-0.00173429,-0.00194481,-0.00116540,0.02
 341704,0.15177773,-0.18990890,-0.02856327,-0.16433201,0.19550282,0.000
 02718,-0.00000422,-0.00007762,0.00001188,0.00003488,0.00000365,-0.0000
 6912,-0.00000122,-0.00003804,-0.00000089,-0.00000623,-0.00000046,-0.00
 005819,-0.00000232,0.00005722,-0.00000633,-0.00000018,-0.00000223,0.00
 005879,-0.00003479,0.00009111,0.00002076,0.00002779,0.00002369,-0.0001
 5736,-0.00000917,-0.00003858,-0.00009647,-0.00033762,-0.00046233,-0.00
 000840,0.00005848,0.00000706,0.00002587,-0.00000394,0.00001230,-0.0000
 0162,-0.00000981,0.00000129,-0.00002841,0.00000515,0.00002605,-0.00000
 040,0.00000029,0.00000285,0.00002633,-0.00002158,-0.00000776,-0.000016
 48,-0.00000171,-0.00001212,0.00001462,-0.00001880,-0.00005300,-0.00001
 429,-0.00001454,0.00002158,-0.00001141,0.00001822,0.00001978,0.0000709
 9,-0.00001682,-0.00066486,-0.00003783,0.00548077,0.00080829,-0.0006945
 6,-0.00019849,0.00064909,-0.01126625,-0.00251350,0.01438771,-0.0002248
 7,-0.00157733,-0.00161507,-0.23562332,0.00433325,0.14611745,0.00231926
 ,0.00224149,-0.00047014,-0.00060729,-0.00145771,-0.00138299,0.00318686
 ,0.00167377,0.00183576,-0.00004780,0.00008198,-0.00009117,0.24320872,-
 0.00001964,0.00000247,-0.00002966,0.00002449,0.00005175,-0.00002773,-0
 .00004473,-0.00000928,-0.00003408,0.00000091,-0.00000804,-0.00000360,-
 0.00004592,0.00000377,0.00003393,-0.00000044,0.00000028,-0.00000140,0.
 00006262,-0.00000725,0.00010106,-0.00000374,-0.00000398,-0.00002232,-0
 .00021852,0.00000147,-0.00000637,-0.00033824,-0.00027469,-0.00045386,-
 0.00003351,0.00005027,0.00001562,-0.00001787,-0.00000634,-0.00004892,-
 0.00000407,-0.00000759,-0.00000051,0.00003903,0.00000210,-0.00003241,-
 0.00000114,0.00000034,-0.00000060,0.00008172,-0.00001152,0.00008326,-0
 .00002257,-0.00000105,-0.00001007,0.00005326,0.00000555,-0.00020740,0.
 00000364,-0.00000056,0.00000556,0.00000299,0.00000090,0.00000574,0.000
 26373,-0.00128675,0.00034251,0.00494161,-0.00011190,0.00330423,0.00081
 564,0.00005844,-0.00072664,0.01735032,0.00455816,-0.01341742,-0.001958
 60,-0.00068295,-0.00172025,0.00435692,-0.05185956,0.00711067,-0.017453
 12,0.00452819,0.01338067,-0.00114605,-0.00069852,-0.00232690,0.0019503
 4,-0.00017532,0.00564851,-0.00091297,0.00004994,0.00060375,-0.00772608
 ,0.04583165,-0.00007750,0.00000777,-0.00001459,0.00001350,0.00006881,-
 0.00000623,-0.00001356,-0.00000350,0.00001645,0.00000210,-0.00001213,-
 0.00000084,0.00001644,0.00000647,-0.00000393,0.00000132,0.00000026,-0.
 00000025,0.00000302,-0.00003104,0.00004777,-0.00000311,0.00000319,-0.0
 0001305,-0.00009973,-0.00002250,-0.00001093,-0.00045893,-0.00044642,-0
 .00034939,0.00000135,0.00005133,0.00001071,-0.00000865,0.00000189,-0.0
 0007321,-0.00000068,-0.00000882,-0.00000102,0.00006199,-0.00000427,-0.
 00003268,-0.00000056,0.00000032,-0.00000625,0.00007924,-0.00004897,0.0
 0007342,0.00001564,0.00002994,0.00002646,0.00000891,-0.00000804,-0.000
 17752,0.00002154,0.00001011,-0.00000222,0.00001964,-0.00001494,-0.0000
 0119,-0.00066669,-0.00003449,-0.00026512,0.00100136,0.00316858,0.00389
 931,-0.00025697,0.00003424,0.00009376,-0.00397224,0.00165561,0.0059218
 5,-0.00126592,-0.00195189,-0.00140944,0.14610152,0.00714131,-0.1590818
 1,0.01791120,-0.00196623,-0.00752876,-0.00173853,-0.00201961,-0.001010
 02,0.00163677,0.00613654,0.00069108,0.00081603,-0.00017811,-0.00054637
 ,-0.15914852,-0.01156538,0.15975402\\-0.00000039,0.00000165,-0.0000005
 1,-0.00000002,0.00000143,-0.00000054,0.00000008,0.00000174,-0.00000074
 ,-0.00000002,0.00000240,-0.00000094,0.00000035,0.00000117,-0.00000065,
 0.00000049,0.00000134,-0.00000077,0.00000037,0.00000048,-0.00000034,0.
 00000052,-0.00000010,-0.00000021,0.00000010,0.00000060,-0.00000031,-0.
 00000003,0.00000006,-0.00000004,-0.00000051,0.00000113,-0.00000018,-0.
 00000073,0.00000113,-0.00000006,-0.00000096,0.00000173,-0.00000023,-0.
 00000078,0.00000036,0.00000017,-0.00000098,0.00000027,0.00000032,-0.00
 000049,-0.00000013,0.00000032,-0.00000039,-0.00000078,0.00000049,-0.00
 000026,0.00000031,0.00000006,-0.00000098,0.00000234,-0.00000045,0.0000
 0018,0.00000221,-0.00000093,0.00000020,-0.00000082,0.00000022,0.000000
 92,-0.00000116,0.,0.00000133,-0.00000076,-0.00000035,0.00000110,-0.000
 00194,0.00000024,0.00000167,-0.00000219,0.00000007,0.00000055,-0.00000
 240,0.00000070,-0.00000018,-0.00000211,0.00000094,-0.00000059,-0.00000
 250,0.00000129,-0.00000036,-0.00000132,0.00000070,-0.00000092,-0.00000
 108,0.00000086,0.00000071,-0.00000305,0.00000089\\\@
 The archive entry for this job was punched.


 WE ARE REACHING THE STAGE WHERE THE PROBLEMS WE MUST SOLVE ARE 
 GOING TO BECOME INSOLUBLE WITHOUT COMPUTERS.
 I DO NOT FEAR COMPUTERS.  I FEAR THE LACK OF THEM.

                                   -- ISSAC ASIMOV
 Job cpu time:       0 days  0 hours  0 minutes 25.7 seconds.
 Elapsed time:       0 days  0 hours  9 minutes 38.6 seconds.
 File lengths (MBytes):  RWF=    457 Int=      0 D2E=      0 Chk=     26 Scr=      1
 Normal termination of Gaussian 16 at Tue Feb  1 06:56:54 2022.
