 Entering Gaussian System, Link 0=g09
 Initial command:
 /scratch/prg/gaussian/bin/g09/l1.exe "/scratch/home/stetol/gaussian/bodipy/study/4_opt_dipoles/phenyl-tolu-optS0/Gau-1046.inp" -scrdir="/scratch/home/stetol/gaussian/bodipy/study/4_opt_dipoles/phenyl-tolu-optS0/"
 Default is to use a total of  12 processors:
                               12 via shared-memory
                                1 via Linda
 Entering Link 1 = /scratch/prg/gaussian/bin/g09/l1.exe PID=      1047.
  
 Copyright (c) 1988,1990,1992,1993,1995,1998,2003,2009,2013,
            Gaussian, Inc.  All Rights Reserved.
  
 This is part of the Gaussian(R) 09 program.  It is based on
 the Gaussian(R) 03 system (copyright 2003, Gaussian, Inc.),
 the Gaussian(R) 98 system (copyright 1998, Gaussian, Inc.),
 the Gaussian(R) 94 system (copyright 1995, Gaussian, Inc.),
 the Gaussian 92(TM) system (copyright 1992, Gaussian, Inc.),
 the Gaussian 90(TM) system (copyright 1990, Gaussian, Inc.),
 the Gaussian 88(TM) system (copyright 1988, Gaussian, Inc.),
 the Gaussian 86(TM) system (copyright 1986, Carnegie Mellon
 University), and the Gaussian 82(TM) system (copyright 1983,
 Carnegie Mellon University). Gaussian is a federally registered
 trademark of Gaussian, Inc.
  
 This software contains proprietary and confidential information,
 including trade secrets, belonging to Gaussian, Inc.
  
 This software is provided under written license and may be
 used, copied, transmitted, or stored only in accord with that
 written license.
  
 The following legend is applicable only to US Government
 contracts under FAR:
  
                    RESTRICTED RIGHTS LEGEND
  
 Use, reproduction and disclosure by the US Government is
 subject to restrictions as set forth in subparagraphs (a)
 and (c) of the Commercial Computer Software - Restricted
 Rights clause in FAR 52.227-19.
  
 Gaussian, Inc.
 340 Quinnipiac St., Bldg. 40, Wallingford CT 06492
  
  
 ---------------------------------------------------------------
 Warning -- This program may not be used in any manner that
 competes with the business of Gaussian, Inc. or will provide
 assistance to any competitor of Gaussian, Inc.  The licensee
 of this program is prohibited from giving any competitor of
 Gaussian, Inc. access to this program.  By using this program,
 the user acknowledges that Gaussian, Inc. is engaged in the
 business of creating and licensing software in the field of
 computational chemistry and represents and warrants to the
 licensee that it is not a competitor of Gaussian, Inc. and that
 it will not use this program in any manner prohibited above.
 ---------------------------------------------------------------
  

 Cite this work as:
 Gaussian 09, Revision D.01,
 M. J. Frisch, G. W. Trucks, H. B. Schlegel, G. E. Scuseria, 
 M. A. Robb, J. R. Cheeseman, G. Scalmani, V. Barone, B. Mennucci, 
 G. A. Petersson, H. Nakatsuji, M. Caricato, X. Li, H. P. Hratchian, 
 A. F. Izmaylov, J. Bloino, G. Zheng, J. L. Sonnenberg, M. Hada, 
 M. Ehara, K. Toyota, R. Fukuda, J. Hasegawa, M. Ishida, T. Nakajima, 
 Y. Honda, O. Kitao, H. Nakai, T. Vreven, J. A. Montgomery, Jr., 
 J. E. Peralta, F. Ogliaro, M. Bearpark, J. J. Heyd, E. Brothers, 
 K. N. Kudin, V. N. Staroverov, T. Keith, R. Kobayashi, J. Normand, 
 K. Raghavachari, A. Rendell, J. C. Burant, S. S. Iyengar, J. Tomasi, 
 M. Cossi, N. Rega, J. M. Millam, M. Klene, J. E. Knox, J. B. Cross, 
 V. Bakken, C. Adamo, J. Jaramillo, R. Gomperts, R. E. Stratmann, 
 O. Yazyev, A. J. Austin, R. Cammi, C. Pomelli, J. W. Ochterski, 
 R. L. Martin, K. Morokuma, V. G. Zakrzewski, G. A. Voth, 
 P. Salvador, J. J. Dannenberg, S. Dapprich, A. D. Daniels, 
 O. Farkas, J. B. Foresman, J. V. Ortiz, J. Cioslowski, 
 and D. J. Fox, Gaussian, Inc., Wallingford CT, 2013.
 
 ******************************************
 Gaussian 09:  EM64L-G09RevD.01 24-Apr-2013
                28-Sep-2018 
 ******************************************
 %LindaWorkers=fizika90-ib.bullx,fizika91-ib.bullx,fizika92-ib.bullx,fizika93-ib.
 bullx
 %chk=bodipy.chk
 SetLPE:  input flags=""
 SetLPE:    new flags=" -nodelist 'fizika90-ib.bullx fizika91-ib.bullx fizika92-ib.bullx fizika93-ib.bullx'"
 Will use up to    4 processors via Linda.
 Default route:  MaxDisk=50000GB
 ----------------------------------------------------------------------
 #p m062x cc-pvdz scrf=(cpcm,solvent=Toluene) opt=(tight,calcfc) freq n
 osymm int=ultrafine fchk
 ----------------------------------------------------------------------
 1/7=10,10=4,14=-1,18=20,19=15,26=4,38=1/1,3;
 2/9=110,12=2,15=1,17=6,18=5,40=1/2;
 3/5=16,11=2,16=1,25=1,30=1,70=2101,71=2,72=13,74=-55,75=-5,140=1/1,2,3;
 4//1;
 5/5=2,38=5,53=13/2;
 8/6=4,10=90,11=11/1;
 11/6=1,8=1,9=11,15=111,16=1,31=1/1,2,10;
 10/6=1,13=1,31=1/2;
 6/7=2,8=2,9=2,10=2,28=1/1;
 7/10=1,18=20,25=1,30=1/1,2,3,16;
 1/7=10,10=4,14=-1,18=20,19=15,26=4/3(2);
 2/9=110,15=1/2;
 99//99;
 2/9=110,15=1/2;
 3/5=16,11=2,16=1,25=1,30=1,70=2105,71=1,72=13,74=-55,75=-5/1,2,3;
 4/5=5,16=3,69=1/1;
 5/5=2,38=5,53=13/2;
 7/30=1/1,2,3,16;
 1/7=10,14=-1,18=20,19=15,26=4/3(-5);
 2/9=110,15=1/2;
 6/7=2,8=2,9=2,10=2,19=2,28=1/1;
 99/9=1/99;
 Leave Link    1 at Fri Sep 28 10:13:43 2018, MaxMem=           0 cpu:        87.4
 (Enter /scratch/prg/gaussian/bin/g09/l101.exe)
 ---------------------------------------------
 BODIPY-phenyl at around S0 minimum in toluene
 ---------------------------------------------
 Symbolic Z-matrix:
 Charge =  0 Multiplicity = 1
 B                     0.        0.        0. 
 N                     0.        0.        1.56 
 C                     1.08974   0.        2.32873 
 H                     2.07731   0.        1.87694 
 C                     0.72501   0.        3.69281 
 H                     1.41139   0.        4.5344 
 C                    -0.66145   0.        3.73163 
 H                    -1.30126   0.        4.60915 
 C                    -1.11437   0.        2.3858 
 C                    -2.41066   0.        1.84806 
 N                    -1.50684   0.       -0.40376 
 C                    -1.96733   0.       -1.65533 
 H                    -1.27534   0.       -2.49232 
 C                    -3.37933   0.       -1.65607 
 H                    -4.0146    0.       -2.53689 
 C                    -3.77568   0.       -0.32691 
 H                    -4.78889   0.        0.06398 
 C                    -2.59292   0.        0.45891 
 F                     0.64865   1.12349  -0.48504 
 F                     0.64865  -1.12349  -0.48504 
 C                    -3.5853    0.        2.74841 
 C                    -3.69864  -0.96737   3.7471 
 H                    -2.92209  -1.72323   3.86434 
 C                    -4.80581  -0.96737   4.59574 
 H                    -4.89436  -1.72323   5.37608 
 C                    -5.79964   0.        4.4457 
 C                    -5.68631   0.96737   3.44701 
 H                    -6.46285   1.72323   3.32977 
 C                    -4.57913   0.96737   2.59837 
 H                    -4.49058   1.72323   1.81803 
 H                    -6.66475   0.        5.10879 
 
 NAtoms=     31 NQM=       31 NQMF=       0 NMMI=      0 NMMIF=      0
                NMic=       0 NMicF=      0.
                    Isotopes and Nuclear Properties:
 (Nuclear quadrupole moments (NQMom) in fm**2, nuclear magnetic moments (NMagM)
  in nuclear magnetons)

  Atom         1           2           3           4           5           6           7           8           9          10
 IAtWgt=          11          14          12           1          12           1          12           1          12          12
 AtmWgt=  11.0093053  14.0030740  12.0000000   1.0078250  12.0000000   1.0078250  12.0000000   1.0078250  12.0000000  12.0000000
 NucSpn=           3           2           0           1           0           1           0           1           0           0
 AtZEff=   0.0000000   0.0000000   0.0000000   0.0000000   0.0000000   0.0000000   0.0000000   0.0000000   0.0000000   0.0000000
 NQMom=    4.0590000   2.0440000   0.0000000   0.0000000   0.0000000   0.0000000   0.0000000   0.0000000   0.0000000   0.0000000
 NMagM=    2.6886370   0.4037610   0.0000000   2.7928460   0.0000000   2.7928460   0.0000000   2.7928460   0.0000000   0.0000000
 AtZNuc=   5.0000000   7.0000000   6.0000000   1.0000000   6.0000000   1.0000000   6.0000000   1.0000000   6.0000000   6.0000000

  Atom        11          12          13          14          15          16          17          18          19          20
 IAtWgt=          14          12           1          12           1          12           1          12          19          19
 AtmWgt=  14.0030740  12.0000000   1.0078250  12.0000000   1.0078250  12.0000000   1.0078250  12.0000000  18.9984033  18.9984033
 NucSpn=           2           0           1           0           1           0           1           0           1           1
 AtZEff=   0.0000000   0.0000000   0.0000000   0.0000000   0.0000000   0.0000000   0.0000000   0.0000000   0.0000000   0.0000000
 NQMom=    2.0440000   0.0000000   0.0000000   0.0000000   0.0000000   0.0000000   0.0000000   0.0000000   0.0000000   0.0000000
 NMagM=    0.4037610   0.0000000   2.7928460   0.0000000   2.7928460   0.0000000   2.7928460   0.0000000   2.6288670   2.6288670
 AtZNuc=   7.0000000   6.0000000   1.0000000   6.0000000   1.0000000   6.0000000   1.0000000   6.0000000   9.0000000   9.0000000

  Atom        21          22          23          24          25          26          27          28          29          30
 IAtWgt=          12          12           1          12           1          12          12           1          12           1
 AtmWgt=  12.0000000  12.0000000   1.0078250  12.0000000   1.0078250  12.0000000  12.0000000   1.0078250  12.0000000   1.0078250
 NucSpn=           0           0           1           0           1           0           0           1           0           1
 AtZEff=   0.0000000   0.0000000   0.0000000   0.0000000   0.0000000   0.0000000   0.0000000   0.0000000   0.0000000   0.0000000
 NQMom=    0.0000000   0.0000000   0.0000000   0.0000000   0.0000000   0.0000000   0.0000000   0.0000000   0.0000000   0.0000000
 NMagM=    0.0000000   0.0000000   2.7928460   0.0000000   2.7928460   0.0000000   0.0000000   2.7928460   0.0000000   2.7928460
 AtZNuc=   6.0000000   6.0000000   1.0000000   6.0000000   1.0000000   6.0000000   6.0000000   1.0000000   6.0000000   1.0000000

  Atom        31
 IAtWgt=           1
 AtmWgt=   1.0078250
 NucSpn=           1
 AtZEff=   0.0000000
 NQMom=    0.0000000
 NMagM=    2.7928460
 AtZNuc=   1.0000000
 Leave Link  101 at Fri Sep 28 10:14:10 2018, MaxMem= 12079595520 cpu:       189.5
 (Enter /scratch/prg/gaussian/bin/g09/l103.exe)

 GradGradGradGradGradGradGradGradGradGradGradGradGradGradGradGradGradGrad
 Berny optimization.
 Initialization pass.
                           ----------------------------
                           !    Initial Parameters    !
                           ! (Angstroms and Degrees)  !
 --------------------------                            --------------------------
 ! Name  Definition              Value          Derivative Info.                !
 --------------------------------------------------------------------------------
 ! R1    R(1,2)                  1.56           calculate D2E/DX2 analytically  !
 ! R2    R(1,11)                 1.56           calculate D2E/DX2 analytically  !
 ! R3    R(1,19)                 1.385          calculate D2E/DX2 analytically  !
 ! R4    R(1,20)                 1.385          calculate D2E/DX2 analytically  !
 ! R5    R(2,3)                  1.3336         calculate D2E/DX2 analytically  !
 ! R6    R(2,9)                  1.387          calculate D2E/DX2 analytically  !
 ! R7    R(3,4)                  1.086          calculate D2E/DX2 analytically  !
 ! R8    R(3,5)                  1.412          calculate D2E/DX2 analytically  !
 ! R9    R(5,6)                  1.086          calculate D2E/DX2 analytically  !
 ! R10   R(5,7)                  1.387          calculate D2E/DX2 analytically  !
 ! R11   R(7,8)                  1.086          calculate D2E/DX2 analytically  !
 ! R12   R(7,9)                  1.42           calculate D2E/DX2 analytically  !
 ! R13   R(9,10)                 1.4034         calculate D2E/DX2 analytically  !
 ! R14   R(10,18)                1.4011         calculate D2E/DX2 analytically  !
 ! R15   R(10,21)                1.48           calculate D2E/DX2 analytically  !
 ! R16   R(11,12)                1.3336         calculate D2E/DX2 analytically  !
 ! R17   R(11,18)                1.387          calculate D2E/DX2 analytically  !
 ! R18   R(12,13)                1.086          calculate D2E/DX2 analytically  !
 ! R19   R(12,14)                1.412          calculate D2E/DX2 analytically  !
 ! R20   R(14,15)                1.086          calculate D2E/DX2 analytically  !
 ! R21   R(14,16)                1.387          calculate D2E/DX2 analytically  !
 ! R22   R(16,17)                1.086          calculate D2E/DX2 analytically  !
 ! R23   R(16,18)                1.42           calculate D2E/DX2 analytically  !
 ! R24   R(21,22)                1.395          calculate D2E/DX2 analytically  !
 ! R25   R(21,29)                1.395          calculate D2E/DX2 analytically  !
 ! R26   R(22,23)                1.09           calculate D2E/DX2 analytically  !
 ! R27   R(22,24)                1.395          calculate D2E/DX2 analytically  !
 ! R28   R(24,25)                1.09           calculate D2E/DX2 analytically  !
 ! R29   R(24,26)                1.395          calculate D2E/DX2 analytically  !
 ! R30   R(26,27)                1.395          calculate D2E/DX2 analytically  !
 ! R31   R(26,31)                1.09           calculate D2E/DX2 analytically  !
 ! R32   R(27,28)                1.09           calculate D2E/DX2 analytically  !
 ! R33   R(27,29)                1.395          calculate D2E/DX2 analytically  !
 ! R34   R(29,30)                1.09           calculate D2E/DX2 analytically  !
 ! A1    A(2,1,11)             105.0            calculate D2E/DX2 analytically  !
 ! A2    A(2,1,19)             110.5            calculate D2E/DX2 analytically  !
 ! A3    A(2,1,20)             110.5            calculate D2E/DX2 analytically  !
 ! A4    A(11,1,19)            111.2069         calculate D2E/DX2 analytically  !
 ! A5    A(11,1,20)            111.2069         calculate D2E/DX2 analytically  !
 ! A6    A(19,1,20)            108.4232         calculate D2E/DX2 analytically  !
 ! A7    A(1,2,3)              125.2            calculate D2E/DX2 analytically  !
 ! A8    A(1,2,9)              126.54           calculate D2E/DX2 analytically  !
 ! A9    A(3,2,9)              108.26           calculate D2E/DX2 analytically  !
 ! A10   A(2,3,4)              120.217          calculate D2E/DX2 analytically  !
 ! A11   A(2,3,5)              110.23           calculate D2E/DX2 analytically  !
 ! A12   A(4,3,5)              129.553          calculate D2E/DX2 analytically  !
 ! A13   A(3,5,6)              125.83           calculate D2E/DX2 analytically  !
 ! A14   A(3,5,7)              106.574          calculate D2E/DX2 analytically  !
 ! A15   A(6,5,7)              127.596          calculate D2E/DX2 analytically  !
 ! A16   A(5,7,8)              127.7            calculate D2E/DX2 analytically  !
 ! A17   A(5,7,9)              106.996          calculate D2E/DX2 analytically  !
 ! A18   A(8,7,9)              125.304          calculate D2E/DX2 analytically  !
 ! A19   A(2,9,7)              107.94           calculate D2E/DX2 analytically  !
 ! A20   A(2,9,10)             120.93           calculate D2E/DX2 analytically  !
 ! A21   A(7,9,10)             131.1299         calculate D2E/DX2 analytically  !
 ! A22   A(9,10,18)            120.0046         calculate D2E/DX2 analytically  !
 ! A23   A(9,10,21)            120.0            calculate D2E/DX2 analytically  !
 ! A24   A(18,10,21)           119.9953         calculate D2E/DX2 analytically  !
 ! A25   A(1,11,12)            125.2            calculate D2E/DX2 analytically  !
 ! A26   A(1,11,18)            126.54           calculate D2E/DX2 analytically  !
 ! A27   A(12,11,18)           108.26           calculate D2E/DX2 analytically  !
 ! A28   A(11,12,13)           120.217          calculate D2E/DX2 analytically  !
 ! A29   A(11,12,14)           110.23           calculate D2E/DX2 analytically  !
 ! A30   A(13,12,14)           129.553          calculate D2E/DX2 analytically  !
 ! A31   A(12,14,15)           125.83           calculate D2E/DX2 analytically  !
 ! A32   A(12,14,16)           106.574          calculate D2E/DX2 analytically  !
 ! A33   A(15,14,16)           127.596          calculate D2E/DX2 analytically  !
 ! A34   A(14,16,17)           127.7            calculate D2E/DX2 analytically  !
 ! A35   A(14,16,18)           106.996          calculate D2E/DX2 analytically  !
 ! A36   A(17,16,18)           125.304          calculate D2E/DX2 analytically  !
 ! A37   A(10,18,11)           120.9853         calculate D2E/DX2 analytically  !
 ! A38   A(10,18,16)           131.0746         calculate D2E/DX2 analytically  !
 ! A39   A(11,18,16)           107.94           calculate D2E/DX2 analytically  !
 ! A40   A(10,21,22)           120.0            calculate D2E/DX2 analytically  !
 ! A41   A(10,21,29)           120.0            calculate D2E/DX2 analytically  !
 ! A42   A(22,21,29)           120.0            calculate D2E/DX2 analytically  !
 ! A43   A(21,22,23)           120.0            calculate D2E/DX2 analytically  !
 ! A44   A(21,22,24)           120.0            calculate D2E/DX2 analytically  !
 ! A45   A(23,22,24)           120.0            calculate D2E/DX2 analytically  !
 ! A46   A(22,24,25)           120.0            calculate D2E/DX2 analytically  !
 ! A47   A(22,24,26)           120.0            calculate D2E/DX2 analytically  !
 ! A48   A(25,24,26)           120.0            calculate D2E/DX2 analytically  !
 ! A49   A(24,26,27)           120.0            calculate D2E/DX2 analytically  !
 ! A50   A(24,26,31)           120.0            calculate D2E/DX2 analytically  !
 ! A51   A(27,26,31)           120.0            calculate D2E/DX2 analytically  !
 ! A52   A(26,27,28)           120.0            calculate D2E/DX2 analytically  !
 ! A53   A(26,27,29)           120.0            calculate D2E/DX2 analytically  !
 ! A54   A(28,27,29)           120.0            calculate D2E/DX2 analytically  !
 ! A55   A(21,29,27)           120.0            calculate D2E/DX2 analytically  !
 ! A56   A(21,29,30)           120.0001         calculate D2E/DX2 analytically  !
 ! A57   A(27,29,30)           120.0            calculate D2E/DX2 analytically  !
 ! D1    D(11,1,2,3)           180.0            calculate D2E/DX2 analytically  !
 ! D2    D(11,1,2,9)             0.0            calculate D2E/DX2 analytically  !
 ! D3    D(19,1,2,3)           -60.0            calculate D2E/DX2 analytically  !
 ! D4    D(19,1,2,9)           120.0            calculate D2E/DX2 analytically  !
 ! D5    D(20,1,2,3)            60.0            calculate D2E/DX2 analytically  !
 ! D6    D(20,1,2,9)          -120.0            calculate D2E/DX2 analytically  !
 ! D7    D(2,1,11,12)          180.0            calculate D2E/DX2 analytically  !
 ! D8    D(2,1,11,18)            0.0            calculate D2E/DX2 analytically  !
 ! D9    D(19,1,11,12)          60.4709         calculate D2E/DX2 analytically  !
 ! D10   D(19,1,11,18)        -119.5291         calculate D2E/DX2 analytically  !
 ! D11   D(20,1,11,12)         -60.4709         calculate D2E/DX2 analytically  !
 ! D12   D(20,1,11,18)         119.5291         calculate D2E/DX2 analytically  !
 ! D13   D(1,2,3,4)              0.0            calculate D2E/DX2 analytically  !
 ! D14   D(1,2,3,5)            180.0            calculate D2E/DX2 analytically  !
 ! D15   D(9,2,3,4)            180.0            calculate D2E/DX2 analytically  !
 ! D16   D(9,2,3,5)              0.0            calculate D2E/DX2 analytically  !
 ! D17   D(1,2,9,7)            180.0            calculate D2E/DX2 analytically  !
 ! D18   D(1,2,9,10)             0.0            calculate D2E/DX2 analytically  !
 ! D19   D(3,2,9,7)              0.0            calculate D2E/DX2 analytically  !
 ! D20   D(3,2,9,10)           180.0            calculate D2E/DX2 analytically  !
 ! D21   D(2,3,5,6)            180.0            calculate D2E/DX2 analytically  !
 ! D22   D(2,3,5,7)              0.0            calculate D2E/DX2 analytically  !
 ! D23   D(4,3,5,6)              0.0            calculate D2E/DX2 analytically  !
 ! D24   D(4,3,5,7)            180.0            calculate D2E/DX2 analytically  !
 ! D25   D(3,5,7,8)            180.0            calculate D2E/DX2 analytically  !
 ! D26   D(3,5,7,9)              0.0            calculate D2E/DX2 analytically  !
 ! D27   D(6,5,7,8)              0.0            calculate D2E/DX2 analytically  !
 ! D28   D(6,5,7,9)            180.0            calculate D2E/DX2 analytically  !
 ! D29   D(5,7,9,2)              0.0            calculate D2E/DX2 analytically  !
 ! D30   D(5,7,9,10)           180.0            calculate D2E/DX2 analytically  !
 ! D31   D(8,7,9,2)            180.0            calculate D2E/DX2 analytically  !
 ! D32   D(8,7,9,10)             0.0            calculate D2E/DX2 analytically  !
 ! D33   D(2,9,10,18)            0.0            calculate D2E/DX2 analytically  !
 ! D34   D(2,9,10,21)          180.0            calculate D2E/DX2 analytically  !
 ! D35   D(7,9,10,18)          180.0            calculate D2E/DX2 analytically  !
 ! D36   D(7,9,10,21)            0.0            calculate D2E/DX2 analytically  !
 ! D37   D(9,10,18,11)           0.0            calculate D2E/DX2 analytically  !
 ! D38   D(9,10,18,16)         180.0            calculate D2E/DX2 analytically  !
 ! D39   D(21,10,18,11)        180.0            calculate D2E/DX2 analytically  !
 ! D40   D(21,10,18,16)          0.0            calculate D2E/DX2 analytically  !
 ! D41   D(9,10,21,22)         -53.2            calculate D2E/DX2 analytically  !
 ! D42   D(9,10,21,29)         126.8            calculate D2E/DX2 analytically  !
 ! D43   D(18,10,21,22)        126.8            calculate D2E/DX2 analytically  !
 ! D44   D(18,10,21,29)        -53.2            calculate D2E/DX2 analytically  !
 ! D45   D(1,11,12,13)           0.0            calculate D2E/DX2 analytically  !
 ! D46   D(1,11,12,14)         180.0            calculate D2E/DX2 analytically  !
 ! D47   D(18,11,12,13)        180.0            calculate D2E/DX2 analytically  !
 ! D48   D(18,11,12,14)          0.0            calculate D2E/DX2 analytically  !
 ! D49   D(1,11,18,10)           0.0            calculate D2E/DX2 analytically  !
 ! D50   D(1,11,18,16)         180.0            calculate D2E/DX2 analytically  !
 ! D51   D(12,11,18,10)        180.0            calculate D2E/DX2 analytically  !
 ! D52   D(12,11,18,16)          0.0            calculate D2E/DX2 analytically  !
 ! D53   D(11,12,14,15)        180.0            calculate D2E/DX2 analytically  !
 ! D54   D(11,12,14,16)          0.0            calculate D2E/DX2 analytically  !
 ! D55   D(13,12,14,15)          0.0            calculate D2E/DX2 analytically  !
 ! D56   D(13,12,14,16)        180.0            calculate D2E/DX2 analytically  !
 ! D57   D(12,14,16,17)        180.0            calculate D2E/DX2 analytically  !
 ! D58   D(12,14,16,18)          0.0            calculate D2E/DX2 analytically  !
 ! D59   D(15,14,16,17)          0.0            calculate D2E/DX2 analytically  !
 ! D60   D(15,14,16,18)        180.0            calculate D2E/DX2 analytically  !
 ! D61   D(14,16,18,10)        180.0            calculate D2E/DX2 analytically  !
 ! D62   D(14,16,18,11)          0.0            calculate D2E/DX2 analytically  !
 ! D63   D(17,16,18,10)          0.0            calculate D2E/DX2 analytically  !
 ! D64   D(17,16,18,11)        180.0            calculate D2E/DX2 analytically  !
 ! D65   D(10,21,22,23)          0.0001         calculate D2E/DX2 analytically  !
 ! D66   D(10,21,22,24)        180.0            calculate D2E/DX2 analytically  !
 ! D67   D(29,21,22,23)       -180.0            calculate D2E/DX2 analytically  !
 ! D68   D(29,21,22,24)         -0.0001         calculate D2E/DX2 analytically  !
 ! D69   D(10,21,29,27)       -180.0            calculate D2E/DX2 analytically  !
 ! D70   D(10,21,29,30)          0.0            calculate D2E/DX2 analytically  !
 ! D71   D(22,21,29,27)          0.0            calculate D2E/DX2 analytically  !
 ! D72   D(22,21,29,30)       -180.0            calculate D2E/DX2 analytically  !
 ! D73   D(21,22,24,25)       -180.0            calculate D2E/DX2 analytically  !
 ! D74   D(21,22,24,26)          0.0001         calculate D2E/DX2 analytically  !
 ! D75   D(23,22,24,25)         -0.0001         calculate D2E/DX2 analytically  !
 ! D76   D(23,22,24,26)        180.0            calculate D2E/DX2 analytically  !
 ! D77   D(22,24,26,27)          0.0            calculate D2E/DX2 analytically  !
 ! D78   D(22,24,26,31)        180.0            calculate D2E/DX2 analytically  !
 ! D79   D(25,24,26,27)       -180.0            calculate D2E/DX2 analytically  !
 ! D80   D(25,24,26,31)          0.0            calculate D2E/DX2 analytically  !
 ! D81   D(24,26,27,28)       -180.0            calculate D2E/DX2 analytically  !
 ! D82   D(24,26,27,29)          0.0            calculate D2E/DX2 analytically  !
 ! D83   D(31,26,27,28)          0.0            calculate D2E/DX2 analytically  !
 ! D84   D(31,26,27,29)        180.0            calculate D2E/DX2 analytically  !
 ! D85   D(26,27,29,21)          0.0            calculate D2E/DX2 analytically  !
 ! D86   D(26,27,29,30)        180.0            calculate D2E/DX2 analytically  !
 ! D87   D(28,27,29,21)        180.0            calculate D2E/DX2 analytically  !
 ! D88   D(28,27,29,30)          0.0            calculate D2E/DX2 analytically  !
 --------------------------------------------------------------------------------
 Trust Radius=3.00D-01 FncErr=1.00D-07 GrdErr=1.00D-06
 Number of steps in this run=    186 maximum allowed number of steps=    186.
 GradGradGradGradGradGradGradGradGradGradGradGradGradGradGradGradGradGrad

 Leave Link  103 at Fri Sep 28 10:14:28 2018, MaxMem= 12079595520 cpu:        64.2
 (Enter /scratch/prg/gaussian/bin/g09/l202.exe)
                          Input orientation:                          
 ---------------------------------------------------------------------
 Center     Atomic      Atomic             Coordinates (Angstroms)
 Number     Number       Type             X           Y           Z
 ---------------------------------------------------------------------
      1          5           0        0.000000    0.000000    0.000000
      2          7           0        0.000000    0.000000    1.560000
      3          6           0        1.089744    0.000000    2.328730
      4          1           0        2.077309    0.000000    1.876942
      5          6           0        0.725006    0.000000    3.692809
      6          1           0        1.411390    0.000000    4.534398
      7          6           0       -0.661450    0.000000    3.731633
      8          1           0       -1.301256    0.000000    4.609154
      9          6           0       -1.114373    0.000000    2.385797
     10          6           0       -2.410664    0.000000    1.848061
     11          7           0       -1.506844    0.000000   -0.403758
     12          6           0       -1.967334    0.000000   -1.655332
     13          1           0       -1.275340    0.000000   -2.492315
     14          6           0       -3.379334    0.000000   -1.656071
     15          1           0       -4.014598    0.000000   -2.536887
     16          6           0       -3.775676    0.000000   -0.326906
     17          1           0       -4.788891    0.000000    0.063980
     18          6           0       -2.592924    0.000000    0.458912
     19          9           0        0.648645    1.123487   -0.485037
     20          9           0        0.648645   -1.123487   -0.485037
     21          6           0       -3.585299    0.000000    2.748413
     22          6           0       -3.698635   -0.967368    3.747101
     23          1           0       -2.922089   -1.723232    3.864342
     24          6           0       -4.805807   -0.967368    4.595744
     25          1           0       -4.894364   -1.723232    5.376081
     26          6           0       -5.799644    0.000000    4.445698
     27          6           0       -5.686308    0.967368    3.447009
     28          1           0       -6.462853    1.723232    3.329769
     29          6           0       -4.579135    0.967368    2.598366
     30          1           0       -4.490579    1.723232    1.818029
     31          1           0       -6.664746    0.000000    5.108795
 ---------------------------------------------------------------------
                    Distance matrix (angstroms):
                    1          2          3          4          5
     1  B    0.000000
     2  N    1.560000   0.000000
     3  C    2.571094   1.333600   0.000000
     4  H    2.799665   2.101348   1.086000   0.000000
     5  C    3.763306   2.252667   1.412000   2.264088   0.000000
     6  H    4.748977   3.292274   2.228997   2.739621   1.086000
     7  C    3.789802   2.270133   2.243840   3.307670   1.386999
     8  H    4.789318   3.315208   3.304121   4.345076   2.223831
     9  C    2.633221   1.387000   2.204856   3.231991   2.256456
    10  C    3.037537   2.427814   3.533256   4.488066   3.638066
    11  N    1.560000   2.475262   3.769451   4.248264   4.665085
    12  C    2.571095   3.769451   5.021800   5.369925   5.987596
    13  H    2.799665   4.248264   5.369925   5.507328   6.500549
    14  C    3.763306   4.665084   5.987595   6.500549   6.742116
    15  H    4.748978   5.735981   7.051846   7.522846   7.827705
    16  C    3.789802   4.220917   5.542988   6.254149   6.034422
    17  H    4.789318   5.017126   6.299797   7.101516   6.600868
    18  C    2.633221   2.817029   4.130165   4.880767   4.633222
    19  F    1.385000   2.421805   3.061711   2.980310   4.326945
    20  F    1.385000   2.421805   3.061711   2.980310   4.326945
    21  C    4.517537   3.777128   4.693843   5.729275   4.412552
    22  C    5.353174   4.404442   5.086861   6.147750   4.528504
    23  H    5.142108   4.100991   4.628438   5.649183   4.037357
    24  C    6.719557   5.766049   6.390045   7.463576   5.686913
    25  H    7.471718   6.441025   6.932923   7.988600   6.113939
    26  C    7.307537   6.477895   7.207303   8.285222   6.567945
    27  C    6.719507   6.068830   6.935505   7.979640   6.488541
    28  H    7.471637   6.918821   7.811103   8.832587   7.400449
    29  C    5.353110   4.794005   5.757143   6.764946   5.501592
    30  H    5.141990   4.816784   5.862623   6.790446   5.804021
    31  H    8.397537   7.550681   8.237771   9.320322   7.524191
                    6          7          8          9         10
     6  H    0.000000
     7  C    2.222858   0.000000
     8  H    2.713676   1.085999   0.000000
     9  C    3.316016   1.420005   2.231197   0.000000
    10  C    4.671670   2.570524   2.975638   1.403400   0.000000
    11  N    5.735981   4.220918   5.017126   2.817029   2.426433
    12  C    7.051846   5.542989   6.299797   4.130165   3.531332
    13  H    7.522846   6.254150   7.101516   4.880767   4.486404
    14  C    7.827704   6.034422   6.600868   4.633222   3.635555
    15  H    8.913160   7.109004   7.643829   5.713504   4.669087
    16  C    7.109003   5.115676   5.521544   3.800170   2.567828
    17  H    7.643829   5.521544   5.729067   4.346598   2.973030
    18  C    5.713503   3.800170   4.346598   2.428785   1.401054
    19  F    5.199878   4.556191   5.569122   3.551358   4.008109
    20  F    5.199878   4.556191   5.569122   3.551358   4.008109
    21  C    5.306283   3.084739   2.946050   2.497392   1.480000
    22  C    5.260037   3.187559   2.725135   3.076907   2.490185
    23  H    4.711427   2.845633   2.480196   2.902320   2.701198
    24  C    6.292305   4.342601   3.635637   4.409802   3.771243
    25  H    6.590940   4.857087   4.058094   5.118560   4.645990
    26  C    7.211580   5.187574   4.501357   5.118101   4.270000
    27  C    7.245380   5.125038   4.638433   4.792135   3.771244
    28  H    8.150114   6.065253   5.590030   5.697969   4.645990
    29  C    6.369491   4.191462   3.965294   3.603549   2.490186
    30  H    6.721713   4.614503   4.575116   3.832839   2.701199
    31  H    8.096537   6.159232   5.386712   6.182342   5.360000
                   11         12         13         14         15
    11  N    0.000000
    12  C    1.333600   0.000000
    13  H    2.101348   1.086000   0.000000
    14  C    2.252667   1.412000   2.264088   0.000000
    15  H    3.292274   2.228997   2.739621   1.086001   0.000000
    16  C    2.270133   2.243840   3.307669   1.386999   2.222858
    17  H    3.315209   3.304121   4.345076   2.223831   2.713676
    18  C    1.387000   2.204856   3.231991   2.256456   3.316017
    19  F    2.432070   3.078175   2.998851   4.342598   5.217101
    20  F    2.432070   3.078175   2.998851   4.342598   5.217101
    21  C    3.775733   4.691565   5.727228   4.409297   5.302706
    22  C    4.792638   5.754953   6.763022   5.498365   6.365857
    23  H    4.815509   5.860707   6.788844   5.801169   6.718544
    24  C    6.067452   6.933158   7.977505   6.485046   7.241287
    25  H    6.917468   7.808828   8.830545   7.397027   8.146078
    26  C    6.476523   7.204802   8.282835   6.564258   7.207141
    27  C    5.764731   6.387523   7.461100   5.683252   6.287879
    28  H    6.439781   6.930401   7.986018   6.110337   6.586436
    29  C    4.403126   5.084413   6.145396   4.524993   5.255980
    30  H    4.099822   4.626071   5.646800   4.034075   4.707587
    31  H    7.549317   8.235235   9.317863   7.520462   8.091955
                   16         17         18         19         20
    16  C    0.000000
    17  H    1.086000   0.000000
    18  C    1.420004   2.231198   0.000000
    19  F    4.567477   5.579466   3.558234   0.000000
    20  F    4.567477   5.579466   3.558234   2.246974   0.000000
    21  C    3.081206   2.941907   2.495320   5.444603   5.444603
    22  C    4.187991   3.961040   3.601470   6.417282   6.069119
    23  H    4.611366   4.571349   3.830774   6.306429   5.659234
    24  C    5.121470   4.633894   4.790202   7.741903   7.455854
    25  H    6.061770   5.585613   5.696025   8.554616   8.089335
    26  C    5.184033   4.496785   5.116397   8.194803   8.194803
    27  C    4.339211   3.631259   4.408350   7.457680   7.743661
    28  H    4.854042   4.054264   5.117392   8.092332   8.557450
    29  C    3.184111   2.720829   3.075402   6.071362   6.419403
    30  H    2.842773   2.476935   2.901348   5.663517   6.310273
    31  H    6.155775   5.382285   6.180708   9.275714   9.275714
                   21         22         23         24         25
    21  C    0.000000
    22  C    1.395000   0.000000
    23  H    2.157469   1.090000   0.000000
    24  C    2.416210   1.395000   2.157469   0.000000
    25  H    3.404089   2.157469   2.485000   1.089999   0.000000
    26  C    2.790000   2.416211   3.404090   1.395001   2.157469
    27  C    2.416211   2.790000   3.880000   2.416211   3.404089
    28  H    3.404089   3.879999   4.969999   3.404089   4.304145
    29  C    1.395000   2.416211   3.404089   2.790000   3.880000
    30  H    2.157470   3.404089   4.304146   3.880000   4.969999
    31  H    3.880000   3.404090   4.304146   2.157470   2.485000
                   26         27         28         29         30
    26  C    0.000000
    27  C    1.395000   0.000000
    28  H    2.157469   1.089999   0.000000
    29  C    2.416212   1.395001   2.157469   0.000000
    30  H    3.404089   2.157469   2.485000   1.089999   0.000000
    31  H    1.090000   2.157469   2.485000   3.404090   4.304146
                   31
    31  H    0.000000
 Symmetry turned off by external request.
 Stoichiometry    C15H11BF2N2
 Framework group  C1[X(C15H11BF2N2)]
 Deg. of freedom    87
 Full point group                 C1      NOp   1
 Rotational constants (GHZ):      0.5822978      0.2826506      0.2061354
 Leave Link  202 at Fri Sep 28 10:15:12 2018, MaxMem= 12079595520 cpu:       229.6
 (Enter /scratch/prg/gaussian/bin/g09/l301.exe)
 Standard basis: CC-pVDZ (5D, 7F)
 Ernie: Thresh=  0.10000D-02 Tol=  0.10000D-05 Strict=F.
 Ernie:  40 primitive shells out of 495 were deleted.
   335 basis functions,   737 primitive gaussians,   355 cartesian basis functions
    69 alpha electrons       69 beta electrons
       nuclear repulsion energy      1471.2469085719 Hartrees.
 IExCor= 4336 DFT=T Ex+Corr=M062X ExCW=0 ScaHFX=  0.540000
 ScaDFX=  1.000000  1.000000  1.000000  1.000000 ScalE2=  1.000000  1.000000
 IRadAn=      5 IRanWt=     -1 IRanGd=            0 ICorTp=0 IEmpDi=  4
 NAtoms=   31 NActive=   31 NUniq=   31 SFac= 1.00D+00 NAtFMM=   60 NAOKFM=F Big=F
 Integral buffers will be    131072 words long.
 Raffenetti 2 integral format.
 Two-electron integral symmetry is turned off.
 Force inversion solution in PCM.
 ------------------------------------------------------------------------------
 Polarizable Continuum Model (PCM)
 =================================
 Model                : C-PCM.
 Atomic radii         : UFF (Universal Force Field).
 Polarization charges : Total charges.
 Charge compensation  : None.
 Solution method      : Matrix inversion.
 Cavity type          : Scaled VdW (van der Waals Surface) (Alpha=1.100).
 Cavity algorithm     : GePol (No added spheres)
                        Default sphere list used, NSphG=   31.
                        Lebedev-Laikov grids with approx.  5.0 points / Ang**2.
                        Smoothing algorithm: Karplus/York (Gamma=1.0000).
                        Polarization charges: spherical gaussians, with
                                              point-specific exponents (IZeta= 3).
                        Self-potential: point-specific (ISelfS= 7).
                        Self-field    : sphere-specific E.n sum rule (ISelfD= 2).
 1st derivatives      : Analytical E(r).r(x)/FMM algorithm (CHGder, D1EAlg=3).
                        Cavity 1st derivative terms included.
 2nd derivatives      : Analytical E(r).r(xy)/FMM algorithm (CHGder, D2EAlg=3).
                        Cavity 2nd derivative terms included.
 Solvent              : Toluene, Eps=   2.374100 Eps(inf)=   2.238315
 ------------------------------------------------------------------------------
 GePol: Number of generator spheres                  =      31
 GePol: Total number of spheres                      =      31
 GePol: Number of exposed spheres                    =      31 (100.00%)
 GePol: Number of points                             =    2481
 GePol: Average weight of points                     =       0.13
 GePol: Minimum weight of points                     =   0.62D-10
 GePol: Maximum weight of points                     =    0.20577
 GePol: Number of points with low weight             =     172
 GePol: Fraction of low-weight points (<1% of avg)   =       6.93%
 GePol: Cavity surface area                          =    315.341 Ang**2
 GePol: Cavity volume                                =    347.032 Ang**3
 Leave Link  301 at Fri Sep 28 10:16:36 2018, MaxMem= 12079595520 cpu:       359.6
 (Enter /scratch/prg/gaussian/bin/g09/linda-exe/l302.exel)
 NPDir=0 NMtPBC=     1 NCelOv=     1 NCel=       1 NClECP=     1 NCelD=      1
         NCelK=      1 NCelE2=     1 NClLst=     1 CellRange=     0.0.
 One-electron integrals computed using PRISM.
 NBasis=   335 RedAO= T EigKep=  2.43D-04  NBF=   335
 NBsUse=   335 1.00D-06 EigRej= -1.00D+00 NBFU=   335
 Precomputing XC quadrature grid using
 IXCGrd= 4 IRadAn=           5 IRanWt=          -1 IRanGd=           0 AccXCQ= 0.00D+00.
 Generated NRdTot=       0 NPtTot=           0 NUsed=           0 NTot=          32
 NSgBfM=   354   354   354   354   354 MxSgAt=    31 MxSgA2=    31.
 Leave Link  302 at Fri Sep 28 10:16:43 2018, MaxMem= 12079595520 cpu:        39.5
 (Enter /scratch/prg/gaussian/bin/g09/l303.exe)
 DipDrv:  MaxL=1.
 Leave Link  303 at Fri Sep 28 10:16:58 2018, MaxMem= 12079595520 cpu:        40.6
 (Enter /scratch/prg/gaussian/bin/g09/linda-exe/l401.exel)
 ExpMin= 9.54D-02 ExpMax= 1.47D+04 ExpMxC= 5.03D+02 IAcc=3 IRadAn=         5 AccDes= 0.00D+00
 Harris functional with IExCor= 1009 and IRadAn=       5 diagonalized for initial guess.
 HarFok:  IExCor= 1009 AccDes= 0.00D+00 IRadAn=         5 IDoV= 1 UseB2=F ITyADJ=14
 ICtDFT=  3500011 ScaDFX=  1.000000  1.000000  1.000000  1.000000
 FoFCou: FMM=F IPFlag=           0 FMFlag=      100000 FMFlg1=           0
         NFxFlg=           0 DoJE=T BraDBF=F KetDBF=T FulRan=T
         wScrn=  0.000000 ICntrl=     500 IOpCl=  0 I1Cent=   200000004 NGrid=           0
         NMat0=    1 NMatS0=      1 NMatT0=    0 NMatD0=    1 NMtDS0=    0 NMtDT0=    0
 Symmetry not used in FoFCou.
 Harris En= -911.580437794523    
 JPrj=0 DoOrth=F DoCkMO=F.
 Leave Link  401 at Fri Sep 28 10:17:01 2018, MaxMem= 12079595520 cpu:        20.6
 (Enter /scratch/prg/gaussian/bin/g09/linda-exe/l502.exel)
 Closed shell SCF:
 Using DIIS extrapolation, IDIIS=  1040.
 Two-electron integral symmetry not used.
 Keep R1 ints in memory in canonical form, NReq=1606709247.
 IVT=      403077 IEndB=      403077 NGot= 12079595520 MDV= 10495445104
 LenX= 10495445104 LenY= 10495318638
 Requested convergence on RMS density matrix=1.00D-08 within 128 cycles.
 Requested convergence on MAX density matrix=1.00D-06.
 Requested convergence on             energy=1.00D-06.
 No special actions if energy rises.
 FoFCou: FMM=F IPFlag=           0 FMFlag=           0 FMFlg1=           0
         NFxFlg=           0 DoJE=F BraDBF=F KetDBF=F FulRan=T
         wScrn=  0.000000 ICntrl=     600 IOpCl=  0 I1Cent=           0 NGrid=           0
         NMat0=    1 NMatS0=  56280 NMatT0=    0 NMatD0=    1 NMtDS0=    0 NMtDT0=    0
 Symmetry not used in FoFCou.

 Cycle   1  Pass 1  IDiag  1:
 Inv3:  Mode=1 IEnd=    18466083.
 Iteration    1 A*A^-1 deviation from unit magnitude is 6.88D-15 for   1187.
 Iteration    1 A*A^-1 deviation from orthogonality  is 5.88D-15 for   1919    235.
 Iteration    1 A^-1*A deviation from unit magnitude is 7.55D-15 for   1187.
 Iteration    1 A^-1*A deviation from orthogonality  is 3.64D-15 for   2329   1940.
 E= -911.869240735768    
 DIIS: error= 2.80D-02 at cycle   1 NSaved=   1.
 NSaved= 1 IEnMin= 1 EnMin= -911.869240735768     IErMin= 1 ErrMin= 2.80D-02
 ErrMax= 2.80D-02  0.00D+00 EMaxC= 1.00D-01 BMatC= 3.34D-01 BMatP= 3.34D-01
 IDIUse=3 WtCom= 7.20D-01 WtEn= 2.80D-01
 Coeff-Com:  0.100D+01
 Coeff-En:   0.100D+01
 Coeff:      0.100D+01
 Gap=     0.177 Goal=   None    Shift=    0.000
 GapD=    0.177 DampG=1.000 DampE=0.500 DampFc=0.5000 IDamp=-1.
 Damping current iteration by 5.00D-01
 RMSDP=3.63D-03 MaxDP=9.64D-02              OVMax= 1.44D-01

 Cycle   2  Pass 1  IDiag  1:
 E= -912.030511938085     Delta-E=       -0.161271202317 Rises=F Damp=T
 DIIS: error= 8.37D-03 at cycle   2 NSaved=   2.
 NSaved= 2 IEnMin= 2 EnMin= -912.030511938085     IErMin= 2 ErrMin= 8.37D-03
 ErrMax= 8.37D-03  0.00D+00 EMaxC= 1.00D-01 BMatC= 2.86D-02 BMatP= 3.34D-01
 IDIUse=3 WtCom= 9.16D-01 WtEn= 8.37D-02
 Coeff-Com: -0.103D+00 0.110D+01
 Coeff-En:   0.000D+00 0.100D+01
 Coeff:     -0.942D-01 0.109D+01
 Gap=     0.185 Goal=   None    Shift=    0.000
 RMSDP=1.28D-03 MaxDP=6.36D-02 DE=-1.61D-01 OVMax= 8.74D-02

 Cycle   3  Pass 1  IDiag  1:
 E= -912.174081777816     Delta-E=       -0.143569839731 Rises=F Damp=F
 DIIS: error= 6.09D-03 at cycle   3 NSaved=   3.
 NSaved= 3 IEnMin= 3 EnMin= -912.174081777816     IErMin= 3 ErrMin= 6.09D-03
 ErrMax= 6.09D-03  0.00D+00 EMaxC= 1.00D-01 BMatC= 1.41D-02 BMatP= 2.86D-02
 IDIUse=3 WtCom= 9.39D-01 WtEn= 6.09D-02
 Coeff-Com: -0.109D+00 0.479D+00 0.629D+00
 Coeff-En:   0.000D+00 0.000D+00 0.100D+01
 Coeff:     -0.102D+00 0.450D+00 0.652D+00
 Gap=     0.176 Goal=   None    Shift=    0.000
 RMSDP=4.73D-04 MaxDP=2.08D-02 DE=-1.44D-01 OVMax= 4.77D-02

 Cycle   4  Pass 1  IDiag  1:
 E= -912.184589371373     Delta-E=       -0.010507593557 Rises=F Damp=F
 DIIS: error= 2.67D-03 at cycle   4 NSaved=   4.
 NSaved= 4 IEnMin= 4 EnMin= -912.184589371373     IErMin= 4 ErrMin= 2.67D-03
 ErrMax= 2.67D-03  0.00D+00 EMaxC= 1.00D-01 BMatC= 3.16D-03 BMatP= 1.41D-02
 IDIUse=3 WtCom= 9.73D-01 WtEn= 2.67D-02
 Coeff-Com: -0.367D-01 0.101D+00 0.355D+00 0.581D+00
 Coeff-En:   0.000D+00 0.000D+00 0.192D+00 0.808D+00
 Coeff:     -0.357D-01 0.978D-01 0.351D+00 0.587D+00
 Gap=     0.179 Goal=   None    Shift=    0.000
 RMSDP=1.74D-04 MaxDP=8.14D-03 DE=-1.05D-02 OVMax= 2.03D-02

 Cycle   5  Pass 1  IDiag  1:
 E= -912.187700837696     Delta-E=       -0.003111466322 Rises=F Damp=F
 DIIS: error= 4.29D-04 at cycle   5 NSaved=   5.
 NSaved= 5 IEnMin= 5 EnMin= -912.187700837696     IErMin= 5 ErrMin= 4.29D-04
 ErrMax= 4.29D-04  0.00D+00 EMaxC= 1.00D-01 BMatC= 1.03D-04 BMatP= 3.16D-03
 IDIUse=3 WtCom= 9.96D-01 WtEn= 4.29D-03
 Coeff-Com: -0.889D-02 0.150D-01 0.110D+00 0.249D+00 0.635D+00
 Coeff-En:   0.000D+00 0.000D+00 0.000D+00 0.000D+00 0.100D+01
 Coeff:     -0.885D-02 0.149D-01 0.109D+00 0.248D+00 0.637D+00
 Gap=     0.179 Goal=   None    Shift=    0.000
 RMSDP=3.25D-05 MaxDP=1.96D-03 DE=-3.11D-03 OVMax= 3.53D-03

 Cycle   6  Pass 1  IDiag  1:
 E= -912.187794614972     Delta-E=       -0.000093777276 Rises=F Damp=F
 DIIS: error= 1.41D-04 at cycle   6 NSaved=   6.
 NSaved= 6 IEnMin= 6 EnMin= -912.187794614972     IErMin= 6 ErrMin= 1.41D-04
 ErrMax= 1.41D-04  0.00D+00 EMaxC= 1.00D-01 BMatC= 8.25D-06 BMatP= 1.03D-04
 IDIUse=3 WtCom= 9.99D-01 WtEn= 1.41D-03
 Coeff-Com: -0.182D-02 0.835D-03 0.269D-01 0.749D-01 0.287D+00 0.612D+00
 Coeff-En:   0.000D+00 0.000D+00 0.000D+00 0.000D+00 0.000D+00 0.100D+01
 Coeff:     -0.182D-02 0.833D-03 0.269D-01 0.748D-01 0.287D+00 0.612D+00
 Gap=     0.179 Goal=   None    Shift=    0.000
 RMSDP=9.23D-06 MaxDP=3.52D-04 DE=-9.38D-05 OVMax= 8.54D-04

 Cycle   7  Pass 1  IDiag  1:
 E= -912.187802360454     Delta-E=       -0.000007745482 Rises=F Damp=F
 DIIS: error= 5.01D-05 at cycle   7 NSaved=   7.
 NSaved= 7 IEnMin= 7 EnMin= -912.187802360454     IErMin= 7 ErrMin= 5.01D-05
 ErrMax= 5.01D-05  0.00D+00 EMaxC= 1.00D-01 BMatC= 7.30D-07 BMatP= 8.25D-06
 IDIUse=1 WtCom= 1.00D+00 WtEn= 0.00D+00
 Coeff-Com:  0.123D-03-0.122D-02-0.234D-04 0.660D-02 0.610D-01 0.249D+00
 Coeff-Com:  0.685D+00
 Coeff:      0.123D-03-0.122D-02-0.234D-04 0.660D-02 0.610D-01 0.249D+00
 Coeff:      0.685D+00
 Gap=     0.179 Goal=   None    Shift=    0.000
 RMSDP=3.72D-06 MaxDP=1.51D-04 DE=-7.75D-06 OVMax= 3.86D-04

 Cycle   8  Pass 1  IDiag  1:
 E= -912.187803130510     Delta-E=       -0.000000770056 Rises=F Damp=F
 DIIS: error= 1.90D-05 at cycle   8 NSaved=   8.
 NSaved= 8 IEnMin= 8 EnMin= -912.187803130510     IErMin= 8 ErrMin= 1.90D-05
 ErrMax= 1.90D-05  0.00D+00 EMaxC= 1.00D-01 BMatC= 1.43D-07 BMatP= 7.30D-07
 IDIUse=1 WtCom= 1.00D+00 WtEn= 0.00D+00
 Coeff-Com:  0.467D-03-0.819D-03-0.568D-02-0.124D-01-0.296D-01-0.193D-01
 Coeff-Com:  0.321D+00 0.746D+00
 Coeff:      0.467D-03-0.819D-03-0.568D-02-0.124D-01-0.296D-01-0.193D-01
 Coeff:      0.321D+00 0.746D+00
 Gap=     0.179 Goal=   None    Shift=    0.000
 RMSDP=1.59D-06 MaxDP=9.51D-05 DE=-7.70D-07 OVMax= 1.95D-04

 Cycle   9  Pass 1  IDiag  1:
 E= -912.187803312070     Delta-E=       -0.000000181561 Rises=F Damp=F
 DIIS: error= 3.08D-06 at cycle   9 NSaved=   9.
 NSaved= 9 IEnMin= 9 EnMin= -912.187803312070     IErMin= 9 ErrMin= 3.08D-06
 ErrMax= 3.08D-06  0.00D+00 EMaxC= 1.00D-01 BMatC= 5.38D-09 BMatP= 1.43D-07
 IDIUse=1 WtCom= 1.00D+00 WtEn= 0.00D+00
 Coeff-Com:  0.125D-03-0.158D-03-0.160D-02-0.389D-02-0.114D-01-0.202D-01
 Coeff-Com:  0.610D-01 0.221D+00 0.755D+00
 Coeff:      0.125D-03-0.158D-03-0.160D-02-0.389D-02-0.114D-01-0.202D-01
 Coeff:      0.610D-01 0.221D+00 0.755D+00
 Gap=     0.179 Goal=   None    Shift=    0.000
 RMSDP=3.59D-07 MaxDP=1.41D-05 DE=-1.82D-07 OVMax= 3.96D-05

 Cycle  10  Pass 1  IDiag  1:
 E= -912.187803319789     Delta-E=       -0.000000007718 Rises=F Damp=F
 DIIS: error= 1.28D-06 at cycle  10 NSaved=  10.
 NSaved=10 IEnMin=10 EnMin= -912.187803319789     IErMin=10 ErrMin= 1.28D-06
 ErrMax= 1.28D-06  0.00D+00 EMaxC= 1.00D-01 BMatC= 1.17D-09 BMatP= 5.38D-09
 IDIUse=1 WtCom= 1.00D+00 WtEn= 0.00D+00
 Coeff-Com: -0.100D-04 0.420D-04 0.792D-04 0.297D-04-0.918D-03-0.672D-02
 Coeff-Com: -0.165D-01-0.149D-01 0.301D+00 0.738D+00
 Coeff:     -0.100D-04 0.420D-04 0.792D-04 0.297D-04-0.918D-03-0.672D-02
 Coeff:     -0.165D-01-0.149D-01 0.301D+00 0.738D+00
 Gap=     0.179 Goal=   None    Shift=    0.000
 RMSDP=1.48D-07 MaxDP=6.12D-06 DE=-7.72D-09 OVMax= 1.81D-05

 Cycle  11  Pass 1  IDiag  1:
 E= -912.187803321365     Delta-E=       -0.000000001576 Rises=F Damp=F
 DIIS: error= 4.67D-07 at cycle  11 NSaved=  11.
 NSaved=11 IEnMin=11 EnMin= -912.187803321365     IErMin=11 ErrMin= 4.67D-07
 ErrMax= 4.67D-07  0.00D+00 EMaxC= 1.00D-01 BMatC= 1.24D-10 BMatP= 1.17D-09
 IDIUse=1 WtCom= 1.00D+00 WtEn= 0.00D+00
 Coeff-Com: -0.222D-04 0.383D-04 0.257D-03 0.590D-03 0.132D-02 0.212D-03
 Coeff-Com: -0.140D-01-0.412D-01 0.445D-02 0.269D+00 0.779D+00
 Coeff:     -0.222D-04 0.383D-04 0.257D-03 0.590D-03 0.132D-02 0.212D-03
 Coeff:     -0.140D-01-0.412D-01 0.445D-02 0.269D+00 0.779D+00
 Gap=     0.179 Goal=   None    Shift=    0.000
 RMSDP=5.72D-08 MaxDP=1.61D-06 DE=-1.58D-09 OVMax= 5.82D-06

 Cycle  12  Pass 1  IDiag  1:
 E= -912.187803321557     Delta-E=       -0.000000000192 Rises=F Damp=F
 DIIS: error= 1.13D-07 at cycle  12 NSaved=  12.
 NSaved=12 IEnMin=12 EnMin= -912.187803321557     IErMin=12 ErrMin= 1.13D-07
 ErrMax= 1.13D-07  0.00D+00 EMaxC= 1.00D-01 BMatC= 6.09D-12 BMatP= 1.24D-10
 IDIUse=1 WtCom= 1.00D+00 WtEn= 0.00D+00
 Coeff-Com: -0.549D-05 0.833D-05 0.626D-04 0.156D-03 0.393D-03 0.400D-03
 Coeff-Com: -0.199D-02-0.102D-01-0.131D-01 0.369D-01 0.206D+00 0.781D+00
 Coeff:     -0.549D-05 0.833D-05 0.626D-04 0.156D-03 0.393D-03 0.400D-03
 Coeff:     -0.199D-02-0.102D-01-0.131D-01 0.369D-01 0.206D+00 0.781D+00
 Gap=     0.179 Goal=   None    Shift=    0.000
 RMSDP=1.26D-08 MaxDP=3.52D-07 DE=-1.92D-10 OVMax= 1.76D-06

 Cycle  13  Pass 1  IDiag  1:
 E= -912.187803321562     Delta-E=       -0.000000000005 Rises=F Damp=F
 DIIS: error= 4.44D-08 at cycle  13 NSaved=  13.
 NSaved=13 IEnMin=13 EnMin= -912.187803321562     IErMin=13 ErrMin= 4.44D-08
 ErrMax= 4.44D-08  0.00D+00 EMaxC= 1.00D-01 BMatC= 1.48D-12 BMatP= 6.09D-12
 IDIUse=1 WtCom= 1.00D+00 WtEn= 0.00D+00
 Coeff-Com:  0.514D-06-0.133D-05-0.687D-05-0.105D-04-0.175D-05 0.131D-03
 Coeff-Com:  0.105D-02 0.506D-03-0.715D-02-0.213D-01-0.290D-01 0.310D+00
 Coeff-Com:  0.746D+00
 Coeff:      0.514D-06-0.133D-05-0.687D-05-0.105D-04-0.175D-05 0.131D-03
 Coeff:      0.105D-02 0.506D-03-0.715D-02-0.213D-01-0.290D-01 0.310D+00
 Coeff:      0.746D+00
 Gap=     0.179 Goal=   None    Shift=    0.000
 RMSDP=5.98D-09 MaxDP=1.72D-07 DE=-5.46D-12 OVMax= 7.26D-07

 Error on total polarization charges =  0.00670
 SCF Done:  E(RM062X) =  -912.187803322     A.U. after   13 cycles
            NFock= 13  Conv=0.60D-08     -V/T= 2.0060
 KE= 9.067607498971D+02 PE=-5.072250260026D+03 EE= 1.782054798235D+03
 Leave Link  502 at Fri Sep 28 10:20:10 2018, MaxMem= 12079595520 cpu:      1041.4
 (Enter /scratch/prg/gaussian/bin/g09/l801.exe)
 DoSCS=F DFT=T ScalE2(SS,OS)=  1.000000  1.000000
 Range of M.O.s used for correlation:     1   335
 NBasis=   335 NAE=    69 NBE=    69 NFC=     0 NFV=     0
 NROrb=    335 NOA=    69 NOB=    69 NVA=   266 NVB=   266

 **** Warning!!: The largest alpha MO coefficient is  0.12609180D+02

 Leave Link  801 at Fri Sep 28 10:20:12 2018, MaxMem= 12079595520 cpu:         2.1
 (Enter /scratch/prg/gaussian/bin/g09/linda-exe/l1101.exel)
 Using compressed storage, NAtomX=    31.
 Will process     32 centers per pass.
 Leave Link 1101 at Fri Sep 28 10:20:14 2018, MaxMem= 12079595520 cpu:        15.8
 (Enter /scratch/prg/gaussian/bin/g09/l1102.exe)
 Symmetrizing basis deriv contribution to polar:
 IMax=3 JMax=2 DiffMx= 0.00D+00
 Leave Link 1102 at Fri Sep 28 10:20:15 2018, MaxMem= 12079595520 cpu:         3.8
 (Enter /scratch/prg/gaussian/bin/g09/linda-exe/l1110.exel)
 Forming Gx(P) for the SCF density, NAtomX=    31.
 Integral derivatives from FoFJK, PRISM(SPDF).
 Do as many integral derivatives as possible in FoFJK.
 G2DrvN: MDV=   12079595168.
 G2DrvN: will do    32 centers at a time, making    1 passes.
 Calling FoFCou, ICntrl=  3107 FMM=F I1Cent=   0 AccDes= 0.00D+00.
 FoFJK:  IHMeth= 1 ICntrl=    3107 DoSepK=F KAlg= 0 I1Cent=   0 FoldK=F
 IRaf=         0 NMat=   1 IRICut=       1 DoRegI=T DoRafI=F ISym2E= 0.
 FoFCou: FMM=F IPFlag=           0 FMFlag=      100000 FMFlg1=           0
         NFxFlg=           0 DoJE=F BraDBF=F KetDBF=F FulRan=T
         wScrn=  0.000000 ICntrl=    3107 IOpCl=  0 I1Cent=           0 NGrid=           0
         NMat0=    1 NMatS0=      1 NMatT0=    0 NMatD0=    1 NMtDS0=    0 NMtDT0=    0
 Symmetry not used in FoFCou.
 NEqPCM:  Using equilibrium solvation (IEInf=0, Eps=   2.3741, EpsInf=   2.2383)
 G2PCM: DoFxE=T DoFxN=T DoGrad=T DoDP/DQ/DG/TGxP=FFFF NFrqRd=   0 IEInf=0 SqF1=F DoCFld=F IF1Alg=4.
 GePol: Maximum number of non-zero 1st derivatives   =     210
 End of G2Drv F.D. properties file   721 does not exist.
 End of G2Drv F.D. properties file   722 does not exist.
 End of G2Drv F.D. properties file   788 does not exist.
 Leave Link 1110 at Fri Sep 28 10:22:37 2018, MaxMem= 12079595520 cpu:      1691.3
 (Enter /scratch/prg/gaussian/bin/g09/linda-exe/l1002.exel)
 Minotr:  Closed shell wavefunction.
          IDoAtm=1111111111111111111111111111111
 NEqPCM:  Using equilibrium solvation (IEInf=0, Eps=   2.3741, EpsInf=   2.2383)
          Direct CPHF calculation.
          Differentiating once with respect to nuclear coordinates.
          Requested convergence is 1.0D-08 RMS, and 1.0D-07 maximum.
          Secondary convergence is 1.0D-12 RMS, and 1.0D-12 maximum.
          NewPWx=T KeepS1=F KeepF1=F KeepIn=T MapXYZ=F SortEE=F KeepMc=T.
          MDV=   12079594871 using IRadAn=       1.
 Generate precomputed XC quadrature information.
 Keep R1 ints in memory in canonical form, NReq=1606318887.
 FoFCou: FMM=F IPFlag=           0 FMFlag=           0 FMFlg1=           0
         NFxFlg=           0 DoJE=F BraDBF=F KetDBF=F FulRan=T
         wScrn=  0.000000 ICntrl=     600 IOpCl=  0 I1Cent=           0 NGrid=           0
         NMat0=    1 NMatS0=  56280 NMatT0=    0 NMatD0=    1 NMtDS0=    0 NMtDT0=    0
 Symmetry not used in FoFCou.
          Solving linear equations simultaneously, MaxMat=       0.
          There are    96 degrees of freedom in the 1st order CPHF.  IDoFFX=6 NUNeed=     0.
     90 vectors produced by pass  0 Test12= 1.91D-14 1.04D-09 XBig12= 1.05D-01 1.01D-01.
 AX will form    90 AO Fock derivatives at one time.
     90 vectors produced by pass  1 Test12= 1.91D-14 1.04D-09 XBig12= 1.41D-02 4.16D-02.
     90 vectors produced by pass  2 Test12= 1.91D-14 1.04D-09 XBig12= 7.49D-04 4.40D-03.
     90 vectors produced by pass  3 Test12= 1.91D-14 1.04D-09 XBig12= 1.11D-05 5.07D-04.
     90 vectors produced by pass  4 Test12= 1.91D-14 1.04D-09 XBig12= 8.77D-08 4.61D-05.
     90 vectors produced by pass  5 Test12= 1.91D-14 1.04D-09 XBig12= 5.15D-10 4.06D-06.
     77 vectors produced by pass  6 Test12= 1.91D-14 1.04D-09 XBig12= 1.98D-12 1.66D-07.
      8 vectors produced by pass  7 Test12= 1.91D-14 1.04D-09 XBig12= 6.12D-15 1.12D-08.
 InvSVY:  IOpt=1 It=  1 EMax= 6.11D-16
 Solved reduced A of dimension   625 with    96 vectors.
 End of Minotr F.D. properties file   721 does not exist.
 End of Minotr F.D. properties file   722 does not exist.
 End of Minotr F.D. properties file   788 does not exist.
 Leave Link 1002 at Fri Sep 28 10:27:54 2018, MaxMem= 12079595520 cpu:      3029.9
 (Enter /scratch/prg/gaussian/bin/g09/l601.exe)
 Copying SCF densities to generalized density rwf, IOpCl= 0 IROHF=0.

 **********************************************************************

            Population analysis using the SCF density.

 **********************************************************************

 Alpha  occ. eigenvalues --  -25.20287 -25.20286 -14.80080 -14.79987 -10.62016
 Alpha  occ. eigenvalues --  -10.60355 -10.60293 -10.59666 -10.59641 -10.58565
 Alpha  occ. eigenvalues --  -10.57392 -10.57389 -10.57099 -10.57073 -10.57053
 Alpha  occ. eigenvalues --  -10.56994 -10.56963 -10.55767 -10.55726  -7.12922
 Alpha  occ. eigenvalues --   -1.31233  -1.27576  -1.11540  -1.09562  -0.98992
 Alpha  occ. eigenvalues --   -0.93392  -0.89716  -0.88316  -0.85985  -0.85376
 Alpha  occ. eigenvalues --   -0.82805  -0.76481  -0.70856  -0.70068  -0.69744
 Alpha  occ. eigenvalues --   -0.66839  -0.66489  -0.66111  -0.62316  -0.61005
 Alpha  occ. eigenvalues --   -0.59571  -0.57077  -0.56907  -0.54222  -0.53935
 Alpha  occ. eigenvalues --   -0.52845  -0.52337  -0.51375  -0.50479  -0.50283
 Alpha  occ. eigenvalues --   -0.49861  -0.49768  -0.47971  -0.46924  -0.46787
 Alpha  occ. eigenvalues --   -0.45897  -0.45494  -0.44701  -0.44655  -0.44238
 Alpha  occ. eigenvalues --   -0.41890  -0.41698  -0.41458  -0.37038  -0.32805
 Alpha  occ. eigenvalues --   -0.32485  -0.31923  -0.31549  -0.26573
 Alpha virt. eigenvalues --   -0.08635   0.00953   0.01048   0.06412   0.07829
 Alpha virt. eigenvalues --    0.09135   0.10465   0.12326   0.12361   0.13722
 Alpha virt. eigenvalues --    0.14287   0.14440   0.15395   0.15846   0.16770
 Alpha virt. eigenvalues --    0.16819   0.17821   0.18178   0.20282   0.20533
 Alpha virt. eigenvalues --    0.23144   0.24266   0.25043   0.25767   0.26424
 Alpha virt. eigenvalues --    0.26545   0.28096   0.29197   0.30006   0.31235
 Alpha virt. eigenvalues --    0.33371   0.33539   0.34657   0.35223   0.38065
 Alpha virt. eigenvalues --    0.38950   0.41387   0.41755   0.43406   0.43746
 Alpha virt. eigenvalues --    0.44776   0.45504   0.46240   0.48057   0.48678
 Alpha virt. eigenvalues --    0.50265   0.51003   0.51217   0.51916   0.52161
 Alpha virt. eigenvalues --    0.52694   0.53218   0.53811   0.54219   0.54340
 Alpha virt. eigenvalues --    0.54796   0.55055   0.55450   0.56049   0.56514
 Alpha virt. eigenvalues --    0.57491   0.58542   0.58601   0.60433   0.61301
 Alpha virt. eigenvalues --    0.61595   0.61933   0.62978   0.63350   0.63459
 Alpha virt. eigenvalues --    0.65534   0.67255   0.67891   0.68716   0.68944
 Alpha virt. eigenvalues --    0.70068   0.70132   0.70242   0.72575   0.73032
 Alpha virt. eigenvalues --    0.73268   0.74500   0.75735   0.76318   0.76383
 Alpha virt. eigenvalues --    0.77392   0.78597   0.80717   0.82546   0.83102
 Alpha virt. eigenvalues --    0.86426   0.86930   0.87987   0.88828   0.90685
 Alpha virt. eigenvalues --    0.92871   0.94210   0.94368   0.95258   0.96001
 Alpha virt. eigenvalues --    0.96057   0.97641   0.99015   0.99370   0.99597
 Alpha virt. eigenvalues --    1.00518   1.01650   1.01993   1.02849   1.02928
 Alpha virt. eigenvalues --    1.03818   1.04806   1.05287   1.05710   1.06099
 Alpha virt. eigenvalues --    1.06494   1.06571   1.08590   1.08643   1.10103
 Alpha virt. eigenvalues --    1.10476   1.10879   1.12152   1.15038   1.15874
 Alpha virt. eigenvalues --    1.16507   1.17076   1.18848   1.20860   1.25245
 Alpha virt. eigenvalues --    1.25522   1.30977   1.31169   1.34757   1.35154
 Alpha virt. eigenvalues --    1.36326   1.37157   1.37411   1.38515   1.41064
 Alpha virt. eigenvalues --    1.41409   1.43109   1.43231   1.44151   1.45875
 Alpha virt. eigenvalues --    1.46382   1.47546   1.50211   1.52207   1.52259
 Alpha virt. eigenvalues --    1.52913   1.53203   1.53934   1.55338   1.56144
 Alpha virt. eigenvalues --    1.56215   1.58305   1.59850   1.60301   1.60740
 Alpha virt. eigenvalues --    1.62734   1.63357   1.63560   1.64100   1.65339
 Alpha virt. eigenvalues --    1.65921   1.66106   1.66971   1.67910   1.68588
 Alpha virt. eigenvalues --    1.70656   1.71895   1.71919   1.73224   1.73241
 Alpha virt. eigenvalues --    1.73714   1.74905   1.76516   1.76838   1.77263
 Alpha virt. eigenvalues --    1.77807   1.79959   1.80610   1.80973   1.81183
 Alpha virt. eigenvalues --    1.81969   1.83758   1.83857   1.84858   1.86113
 Alpha virt. eigenvalues --    1.86736   1.87085   1.87602   1.88879   1.89818
 Alpha virt. eigenvalues --    1.90420   1.91084   1.92036   1.92348   1.94075
 Alpha virt. eigenvalues --    1.94888   1.98270   1.99517   2.00558   2.00920
 Alpha virt. eigenvalues --    2.03039   2.03805   2.04125   2.05695   2.09803
 Alpha virt. eigenvalues --    2.13234   2.17730   2.18221   2.18990   2.20178
 Alpha virt. eigenvalues --    2.20595   2.21259   2.22853   2.26535   2.27055
 Alpha virt. eigenvalues --    2.29714   2.32150   2.32446   2.39636   2.40387
 Alpha virt. eigenvalues --    2.41118   2.41964   2.42253   2.44868   2.46019
 Alpha virt. eigenvalues --    2.46401   2.46717   2.47814   2.48977   2.51139
 Alpha virt. eigenvalues --    2.53660   2.54167   2.58189   2.59300   2.59422
 Alpha virt. eigenvalues --    2.63946   2.66657   2.71185   2.72962   2.73073
 Alpha virt. eigenvalues --    2.77093   2.78502   2.82904   2.86688   2.94029
 Alpha virt. eigenvalues --    2.99297   3.05931   3.13940   3.28072   3.30374
 Alpha virt. eigenvalues --    3.57819   3.69100   3.69206   3.72906   3.75155
 Alpha virt. eigenvalues --    3.76716   3.93443   4.01801   4.06339   4.15639
 Alpha virt. eigenvalues --    4.17516
          Condensed to atoms (all electrons):
               1          2          3          4          5          6
     1  B    3.378383   0.334015  -0.019815   0.001182   0.000290   0.000179
     2  N    0.334015   6.168828   0.509069  -0.024883  -0.053513   0.003915
     3  C   -0.019815   0.509069   4.729109   0.405303   0.489036  -0.041351
     4  H    0.001182  -0.024883   0.405303   0.599240  -0.043875  -0.003569
     5  C    0.000290  -0.053513   0.489036  -0.043875   4.769514   0.413282
     6  H    0.000179   0.003915  -0.041351  -0.003569   0.413282   0.647364
     7  C    0.004298  -0.088444  -0.050053   0.007843   0.540216  -0.040584
     8  H    0.000342   0.004344   0.009835  -0.000068  -0.044210  -0.006132
     9  C   -0.065316   0.456536  -0.143699   0.002804  -0.049413   0.009024
    10  C   -0.009676  -0.042147   0.006527  -0.000918   0.007813  -0.000235
    11  N    0.334912  -0.028248   0.000947   0.000187  -0.000039   0.000002
    12  C   -0.020338   0.000926  -0.000055   0.000002  -0.000002   0.000000
    13  H    0.001081   0.000186   0.000001   0.000001   0.000000   0.000000
    14  C    0.000456  -0.000044  -0.000001   0.000000   0.000000   0.000000
    15  H    0.000186   0.000002   0.000000   0.000000   0.000000   0.000000
    16  C    0.004224  -0.000093   0.000032   0.000001   0.000004   0.000000
    17  H    0.000341  -0.000008   0.000000   0.000000   0.000000   0.000000
    18  C   -0.065220  -0.014477  -0.000098   0.000072  -0.000240   0.000007
    19  F    0.471521  -0.025753   0.000849   0.000564   0.000102   0.000001
    20  F    0.471520  -0.025699   0.000916   0.000563   0.000107   0.000001
    21  C    0.001792   0.003536  -0.000141   0.000006   0.000575  -0.000004
    22  C   -0.000055   0.000114  -0.000064   0.000001   0.000269   0.000004
    23  H   -0.000035  -0.000228  -0.000085  -0.000001   0.000470   0.000007
    24  C    0.000002   0.000001   0.000000   0.000000  -0.000015   0.000000
    25  H    0.000000   0.000000   0.000000   0.000000   0.000000   0.000000
    26  C    0.000000   0.000000   0.000000   0.000000   0.000000   0.000000
    27  C    0.000002   0.000001   0.000000   0.000000  -0.000001   0.000000
    28  H    0.000000   0.000000   0.000000   0.000000   0.000000   0.000000
    29  C   -0.000055  -0.000114   0.000006   0.000000   0.000010   0.000000
    30  H   -0.000035  -0.000010   0.000002   0.000000   0.000001   0.000000
    31  H    0.000000   0.000000   0.000000   0.000000   0.000000   0.000000
               7          8          9         10         11         12
     1  B    0.004298   0.000342  -0.065316  -0.009676   0.334912  -0.020338
     2  N   -0.088444   0.004344   0.456536  -0.042147  -0.028248   0.000926
     3  C   -0.050053   0.009835  -0.143699   0.006527   0.000947  -0.000055
     4  H    0.007843  -0.000068   0.002804  -0.000918   0.000187   0.000002
     5  C    0.540216  -0.044210  -0.049413   0.007813  -0.000039  -0.000002
     6  H   -0.040584  -0.006132   0.009024  -0.000235   0.000002   0.000000
     7  C    4.879287   0.408246   0.461282  -0.095999  -0.000104   0.000033
     8  H    0.408246   0.643888  -0.029107  -0.014059  -0.000008   0.000000
     9  C    0.461282  -0.029107   5.022900   0.356218  -0.014763  -0.000060
    10  C   -0.095999  -0.014059   0.356218   5.236774  -0.041872   0.006447
    11  N   -0.000104  -0.000008  -0.014763  -0.041872   6.167529   0.509604
    12  C    0.000033   0.000000  -0.000060   0.006447   0.509604   4.729705
    13  H    0.000001   0.000000   0.000073  -0.000925  -0.024802   0.405337
    14  C    0.000004   0.000000  -0.000250   0.007879  -0.053593   0.488626
    15  H    0.000000   0.000000   0.000007  -0.000239   0.003913  -0.041293
    16  C   -0.000172   0.000001   0.010142  -0.096072  -0.088294  -0.049902
    17  H    0.000001   0.000002   0.000028  -0.014148   0.004339   0.009851
    18  C    0.010201   0.000025  -0.028766   0.355245   0.455617  -0.143762
    19  F   -0.000042   0.000001  -0.002881   0.001012  -0.024348   0.000646
    20  F   -0.000053   0.000001  -0.002929   0.001013  -0.024402   0.000581
    21  C   -0.010997   0.003164  -0.073764   0.389315   0.003548  -0.000143
    22  C   -0.001115   0.003464  -0.016587  -0.068314  -0.000114   0.000006
    23  H    0.003866  -0.000620  -0.002980  -0.009918  -0.000010   0.000002
    24  C   -0.000351   0.000939   0.000797   0.006588   0.000001   0.000000
    25  H    0.000003   0.000002   0.000009  -0.000424   0.000000   0.000000
    26  C   -0.000007   0.000033   0.000013   0.001247   0.000000   0.000000
    27  C   -0.000010  -0.000054  -0.000306   0.006585   0.000001   0.000000
    28  H   -0.000001   0.000000   0.000001  -0.000424   0.000000   0.000000
    29  C    0.000674  -0.000347   0.003030  -0.068269   0.000113  -0.000065
    30  H   -0.000013  -0.000009   0.000650  -0.009894  -0.000229  -0.000085
    31  H   -0.000001   0.000001   0.000000   0.000003   0.000000   0.000000
              13         14         15         16         17         18
     1  B    0.001081   0.000456   0.000186   0.004224   0.000341  -0.065220
     2  N    0.000186  -0.000044   0.000002  -0.000093  -0.000008  -0.014477
     3  C    0.000001  -0.000001   0.000000   0.000032   0.000000  -0.000098
     4  H    0.000001   0.000000   0.000000   0.000001   0.000000   0.000072
     5  C    0.000000   0.000000   0.000000   0.000004   0.000000  -0.000240
     6  H    0.000000   0.000000   0.000000   0.000000   0.000000   0.000007
     7  C    0.000001   0.000004   0.000000  -0.000172   0.000001   0.010201
     8  H    0.000000   0.000000   0.000000   0.000001   0.000002   0.000025
     9  C    0.000073  -0.000250   0.000007   0.010142   0.000028  -0.028766
    10  C   -0.000925   0.007879  -0.000239  -0.096072  -0.014148   0.355245
    11  N   -0.024802  -0.053593   0.003913  -0.088294   0.004339   0.455617
    12  C    0.405337   0.488626  -0.041293  -0.049902   0.009851  -0.143762
    13  H    0.598939  -0.043841  -0.003565   0.007842  -0.000068   0.002798
    14  C   -0.043841   4.769756   0.413262   0.540010  -0.044186  -0.049318
    15  H   -0.003565   0.413262   0.647009  -0.040504  -0.006127   0.008998
    16  C    0.007842   0.540010  -0.040504   4.877843   0.408335   0.461955
    17  H   -0.000068  -0.044186  -0.006127   0.408335   0.643360  -0.029053
    18  C    0.002798  -0.049318   0.008998   0.461955  -0.029053   5.022879
    19  F    0.000504   0.000103   0.000001  -0.000052   0.000001  -0.002906
    20  F    0.000505   0.000098   0.000001  -0.000041   0.000001  -0.002859
    21  C    0.000006   0.000586  -0.000004  -0.011018   0.003163  -0.073679
    22  C    0.000000   0.000010   0.000000   0.000682  -0.000353   0.003004
    23  H    0.000000   0.000001   0.000000  -0.000013  -0.000009   0.000650
    24  C    0.000000  -0.000001   0.000000  -0.000009  -0.000054  -0.000308
    25  H    0.000000   0.000000   0.000000  -0.000001   0.000000   0.000001
    26  C    0.000000   0.000000   0.000000  -0.000007   0.000033   0.000012
    27  C    0.000000  -0.000015   0.000000  -0.000356   0.000949   0.000804
    28  H    0.000000   0.000000   0.000000   0.000003   0.000002   0.000010
    29  C    0.000001   0.000275   0.000004  -0.001154   0.003462  -0.016694
    30  H   -0.000001   0.000473   0.000007   0.003859  -0.000636  -0.003043
    31  H    0.000000   0.000000   0.000000  -0.000001   0.000001   0.000000
              19         20         21         22         23         24
     1  B    0.471521   0.471520   0.001792  -0.000055  -0.000035   0.000002
     2  N   -0.025753  -0.025699   0.003536   0.000114  -0.000228   0.000001
     3  C    0.000849   0.000916  -0.000141  -0.000064  -0.000085   0.000000
     4  H    0.000564   0.000563   0.000006   0.000001  -0.000001   0.000000
     5  C    0.000102   0.000107   0.000575   0.000269   0.000470  -0.000015
     6  H    0.000001   0.000001  -0.000004   0.000004   0.000007   0.000000
     7  C   -0.000042  -0.000053  -0.010997  -0.001115   0.003866  -0.000351
     8  H    0.000001   0.000001   0.003164   0.003464  -0.000620   0.000939
     9  C   -0.002881  -0.002929  -0.073764  -0.016587  -0.002980   0.000797
    10  C    0.001012   0.001013   0.389315  -0.068314  -0.009918   0.006588
    11  N   -0.024348  -0.024402   0.003548  -0.000114  -0.000010   0.000001
    12  C    0.000646   0.000581  -0.000143   0.000006   0.000002   0.000000
    13  H    0.000504   0.000505   0.000006   0.000000   0.000000   0.000000
    14  C    0.000103   0.000098   0.000586   0.000010   0.000001  -0.000001
    15  H    0.000001   0.000001  -0.000004   0.000000   0.000000   0.000000
    16  C   -0.000052  -0.000041  -0.011018   0.000682  -0.000013  -0.000009
    17  H    0.000001   0.000001   0.003163  -0.000353  -0.000009  -0.000054
    18  C   -0.002906  -0.002859  -0.073679   0.003004   0.000650  -0.000308
    19  F    8.825089  -0.023455   0.000003   0.000000   0.000000   0.000000
    20  F   -0.023455   8.825088   0.000003   0.000000   0.000000   0.000000
    21  C    0.000003   0.000003   5.023623   0.495565  -0.048523  -0.008455
    22  C    0.000000   0.000000   0.495565   4.779045   0.403770   0.516856
    23  H    0.000000   0.000000  -0.048523   0.403770   0.665960  -0.035605
    24  C    0.000000   0.000000  -0.008455   0.516856  -0.035605   4.712440
    25  H    0.000000   0.000000   0.008359  -0.037705  -0.012076   0.397673
    26  C    0.000000   0.000000  -0.063443  -0.018700   0.008835   0.513576
    27  C    0.000000   0.000000  -0.008464  -0.066911  -0.000693  -0.008358
    28  H    0.000000   0.000000   0.008359   0.000196   0.000054   0.008356
    29  C    0.000000   0.000000   0.495434  -0.017523   0.009907  -0.066935
    30  H    0.000000   0.000000  -0.048527   0.009902  -0.000154  -0.000693
    31  H    0.000000   0.000000  -0.000552   0.009344  -0.000191  -0.043267
              25         26         27         28         29         30
     1  B    0.000000   0.000000   0.000002   0.000000  -0.000055  -0.000035
     2  N    0.000000   0.000000   0.000001   0.000000  -0.000114  -0.000010
     3  C    0.000000   0.000000   0.000000   0.000000   0.000006   0.000002
     4  H    0.000000   0.000000   0.000000   0.000000   0.000000   0.000000
     5  C    0.000000   0.000000  -0.000001   0.000000   0.000010   0.000001
     6  H    0.000000   0.000000   0.000000   0.000000   0.000000   0.000000
     7  C    0.000003  -0.000007  -0.000010  -0.000001   0.000674  -0.000013
     8  H    0.000002   0.000033  -0.000054   0.000000  -0.000347  -0.000009
     9  C    0.000009   0.000013  -0.000306   0.000001   0.003030   0.000650
    10  C   -0.000424   0.001247   0.006585  -0.000424  -0.068269  -0.009894
    11  N    0.000000   0.000000   0.000001   0.000000   0.000113  -0.000229
    12  C    0.000000   0.000000   0.000000   0.000000  -0.000065  -0.000085
    13  H    0.000000   0.000000   0.000000   0.000000   0.000001  -0.000001
    14  C    0.000000   0.000000  -0.000015   0.000000   0.000275   0.000473
    15  H    0.000000   0.000000   0.000000   0.000000   0.000004   0.000007
    16  C   -0.000001  -0.000007  -0.000356   0.000003  -0.001154   0.003859
    17  H    0.000000   0.000033   0.000949   0.000002   0.003462  -0.000636
    18  C    0.000001   0.000012   0.000804   0.000010  -0.016694  -0.003043
    19  F    0.000000   0.000000   0.000000   0.000000   0.000000   0.000000
    20  F    0.000000   0.000000   0.000000   0.000000   0.000000   0.000000
    21  C    0.008359  -0.063443  -0.008464   0.008359   0.495434  -0.048527
    22  C   -0.037705  -0.018700  -0.066911   0.000196  -0.017523   0.009902
    23  H   -0.012076   0.008835  -0.000693   0.000054   0.009907  -0.000154
    24  C    0.397673   0.513576  -0.008358   0.008356  -0.066935  -0.000693
    25  H    0.670004  -0.043860   0.008357  -0.000208   0.000195   0.000054
    26  C   -0.043860   4.739227   0.513567  -0.043849  -0.018666   0.008833
    27  C    0.008357   0.513567   4.712374   0.397670   0.516835  -0.035631
    28  H   -0.000208  -0.043849   0.397670   0.670020  -0.037720  -0.012075
    29  C    0.000195  -0.018666   0.516835  -0.037720   4.779421   0.403815
    30  H    0.000054   0.008833  -0.035631  -0.012075   0.403815   0.665990
    31  H   -0.012477   0.401199  -0.043273  -0.012477   0.009344  -0.000192
              31
     1  B    0.000000
     2  N    0.000000
     3  C    0.000000
     4  H    0.000000
     5  C    0.000000
     6  H    0.000000
     7  C   -0.000001
     8  H    0.000001
     9  C    0.000000
    10  C    0.000003
    11  N    0.000000
    12  C    0.000000
    13  H    0.000000
    14  C    0.000000
    15  H    0.000000
    16  C   -0.000001
    17  H    0.000001
    18  C    0.000000
    19  F    0.000000
    20  F    0.000000
    21  C   -0.000552
    22  C    0.009344
    23  H   -0.000191
    24  C   -0.043267
    25  H   -0.012477
    26  C    0.401199
    27  C   -0.043273
    28  H   -0.012477
    29  C    0.009344
    30  H   -0.000192
    31  H    0.671858
 Mulliken charges:
               1
     1  B    0.175818
     2  N   -0.177810
     3  C    0.103731
     4  H    0.055548
     5  C   -0.030382
     6  H    0.018090
     7  C   -0.028008
     8  H    0.020325
     9  C    0.107308
    10  C    0.090868
    11  N   -0.179886
    12  C    0.103940
    13  H    0.055929
    14  C   -0.030290
    15  H    0.018341
    16  C   -0.027243
    17  H    0.020772
    18  C    0.108145
    19  F   -0.220960
    20  F   -0.220960
    21  C   -0.089325
    22  C    0.005211
    23  H    0.017620
    24  C    0.006823
    25  H    0.022092
    26  C    0.001958
    27  C    0.006926
    28  H    0.022083
    29  C    0.005015
    30  H    0.017641
    31  H    0.020679
 Sum of Mulliken charges =   0.00000
 Mulliken charges with hydrogens summed into heavy atoms:
               1
     1  B    0.175818
     2  N   -0.177810
     3  C    0.159279
     5  C   -0.012292
     7  C   -0.007683
     9  C    0.107308
    10  C    0.090868
    11  N   -0.179886
    12  C    0.159869
    14  C   -0.011949
    16  C   -0.006472
    18  C    0.108145
    19  F   -0.220960
    20  F   -0.220960
    21  C   -0.089325
    22  C    0.022831
    24  C    0.028915
    26  C    0.022637
    27  C    0.029009
    29  C    0.022656
 APT charges:
               1
     1  B   -0.153451
     2  N   -0.627736
     3  C   -0.202532
     4  H    0.250289
     5  C   -0.434111
     6  H    0.851724
     7  C   -0.529264
     8  H    0.874629
     9  C   -0.057847
    10  C    0.117767
    11  N   -0.629781
    12  C   -0.202997
    13  H    0.250569
    14  C   -0.434090
    15  H    0.852257
    16  C   -0.527474
    17  H    0.875430
    18  C   -0.057932
    19  F   -0.184007
    20  F   -0.184008
    21  C   -1.176212
    22  C   -0.506874
    23  H   -0.025006
    24  C   -0.370745
    25  H    1.013753
    26  C   -0.425914
    27  C   -0.370865
    28  H    1.013706
    29  C   -0.507145
    30  H   -0.025216
    31  H    1.533080
 Sum of APT charges =   0.00000
 APT charges with hydrogens summed into heavy atoms:
               1
     1  B   -0.153451
     2  N   -0.627736
     3  C    0.047758
     5  C    0.417613
     7  C    0.345366
     9  C   -0.057847
    10  C    0.117767
    11  N   -0.629781
    12  C    0.047572
    14  C    0.418167
    16  C    0.347956
    18  C   -0.057932
    19  F   -0.184007
    20  F   -0.184008
    21  C   -1.176212
    22  C   -0.531880
    24  C    0.643008
    26  C    1.107166
    27  C    0.642841
    29  C   -0.532360
 Electronic spatial extent (au):  <R**2>=           8425.2029
 Charge=              0.0000 electrons
 Dipole moment (field-independent basis, Debye):
    X=             -5.0832    Y=             -0.0003    Z=              3.8220  Tot=              6.3598
 Quadrupole moment (field-independent basis, Debye-Ang):
   XX=            -83.7759   YY=           -117.3485   ZZ=            -88.2607
   XY=             -2.6559   XZ=             -8.2037   YZ=             -3.4681
 Traceless Quadrupole moment (field-independent basis, Debye-Ang):
   XX=             12.6858   YY=            -20.8868   ZZ=              8.2010
   XY=             -2.6559   XZ=             -8.2037   YZ=             -3.4681
 Octapole moment (field-independent basis, Debye-Ang**2):
  XXX=            585.0177  YYY=             -0.0010  ZZZ=           -483.7315  XYY=            237.5730
  XXY=             25.3622  XXZ=            -94.4468  XZZ=            167.5604  YZZ=            -25.3763
  YYZ=           -182.3670  XYZ=              6.8304
 Hexadecapole moment (field-independent basis, Debye-Ang**3):
 XXXX=          -5659.1023 YYYY=           -356.7847 ZZZZ=          -4289.4346 XXXY=           -152.9856
 XXXZ=           1151.4822 YYYX=             28.8737 YYYZ=             37.6587 ZZZX=           1395.8135
 ZZZY=            -98.7266 XXYY=          -1138.8610 XXZZ=          -1377.1302 YYZZ=           -856.2134
 XXYZ=             29.3040 YYXZ=            524.9512 ZZXY=             99.8743
 N-N= 1.471246908572D+03 E-N=-5.072250257360D+03  KE= 9.067607498971D+02
  Exact polarizability:   0.000   0.000   0.000   0.000   0.000   0.000
 Approx polarizability: 315.882 -17.374 145.885  33.533 -22.673 333.428
 No NMR shielding tensors so no spin-rotation constants.
 Leave Link  601 at Fri Sep 28 10:28:09 2018, MaxMem= 12079595520 cpu:        15.8
 (Enter /scratch/prg/gaussian/bin/g09/linda-exe/l701.exel)
 Compute integral second derivatives.
 ... and contract with generalized density number  0.
 D2PCM: C-PCM CHGder 2nd derivatives, FixD1E=F FixD2E=F DoIter=F DoCFld=F I1PDM=0
 GePol: Maximum number of non-zero 2nd derivatives   =     210
 Leave Link  701 at Fri Sep 28 10:28:15 2018, MaxMem= 12079595520 cpu:        63.8
 (Enter /scratch/prg/gaussian/bin/g09/l702.exe)
 L702 exits ... SP integral derivatives will be done elsewhere.
 Leave Link  702 at Fri Sep 28 10:28:16 2018, MaxMem= 12079595520 cpu:         0.5
 (Enter /scratch/prg/gaussian/bin/g09/linda-exe/l703.exel)
 Compute integral second derivatives, UseDBF=F ICtDFT=           0.
 Integral derivatives from FoFJK, PRISM(SPDF).
 Calling FoFJK, ICntrl=    100147 FMM=F ISym2X=0 I1Cent= 0 IOpClX= 0 NMat=1 NMatS=1 NMatT=0.
 FoFJK:  IHMeth= 1 ICntrl=  100147 DoSepK=F KAlg= 0 I1Cent=   0 FoldK=F
[...]
 856,-0.00007023,0.00001511,-0.00008900,-0.00000614,-0.00000011,-0.0000
 0430,0.00011194,0.00002926,-0.00010539,0.00000008,0.00000098,-0.000007
 89,0.00003855,-0.00002221,0.00015593,0.00001093,-0.00002545,-0.0000053
 2,0.00018012,-0.00001124,-0.00015673,0.00003385,0.00001913,-0.00002984
 ,0.00002921,-0.00004769,-0.00002844,0.00555776,0.00164195,0.00197417,-
 0.00072160,0.01372583,-0.00789320,-0.00166248,-0.00190597,-0.00125230,
 0.02331901,0.15101585,-0.19137292,-0.02775502,-0.16490502,0.19467116,0
 .00020913,-0.00002967,-0.00004969,-0.00007405,0.00011574,-0.00008265,-
 0.00004737,0.00003394,-0.00007919,-0.00001238,-0.00006591,0.00000031,-
 0.00014689,0.00017869,0.00008193,-0.00001865,-0.00000871,-0.00000018,0
 .00007248,-0.00007317,0.00003283,-0.00005836,-0.00015114,0.00013331,0.
 00010692,-0.00025583,0.00026725,-0.00028594,0.00071111,-0.00085290,0.0
 0011009,-0.00016576,0.00003685,0.00004049,-0.00000915,0.00015136,0.000
 01990,0.00001173,-0.00000049,-0.00015650,0.00009761,0.00016421,-0.0000
 0026,0.00000477,0.00001977,-0.00047164,-0.00000387,-0.00041885,0.00006
 427,-0.00008991,0.00001144,0.00004052,0.00004325,0.00033686,-0.0000684
 9,-0.00003961,0.00002519,-0.00005632,0.00005913,0.00002043,-0.01206822
 ,0.02075093,-0.01632934,-0.04202523,0.00890956,0.03037926,-0.00089891,
 0.00122815,0.00530644,-0.22727077,0.15576974,-0.01649406,0.00618063,-0
 .00445953,0.00204794,0.60016103,-0.00013478,0.00001498,-0.00016914,0.0
 0005000,0.00013873,-0.00009052,-0.00009802,-0.00008686,-0.00002811,0.0
 0001650,0.00005963,-0.00003049,-0.00010386,-0.00032081,0.00004282,0.00
 000818,0.00000536,-0.00000611,0.00043798,0.00032218,0.00074557,0.00020
 895,0.00028657,-0.00038484,-0.00065800,0.00027074,-0.00024289,0.000341
 70,-0.00298396,0.00054548,-0.00009812,0.00014358,0.00005925,-0.0000422
 5,-0.00007978,-0.00012390,-0.00003153,0.00005971,0.00001124,0.00007475
 ,-0.00033078,-0.00013534,-0.00000608,0.00000531,0.00000570,0.00058980,
 0.00028107,0.00060662,-0.00040497,0.00031244,0.00013250,-0.00005150,0.
 00031316,-0.00068403,0.00003202,-0.00000140,0.00003711,0.00002974,-0.0
 0000216,0.00003882,0.02225399,-0.05438252,0.02834366,0.04661012,0.0297
 1208,-0.05613316,0.00079503,0.00352881,0.00278833,0.10423272,-0.219571
 22,0.05836477,0.01594002,-0.00948392,0.00034710,-0.15770529,0.50179703
 ,-0.00004470,0.00001452,0.00017811,-0.00000801,-0.00013670,0.00010687,
 0.00012875,0.00001050,0.00005187,-0.00001022,-0.00000369,0.00001922,0.
 00015523,0.00013557,-0.00009318,0.00001381,0.00000364,0.00000526,-0.00
 028563,-0.00006993,-0.00058914,-0.00001211,-0.00011386,0.00010834,0.00
 035690,0.00001790,0.00020507,-0.00078695,0.00090479,-0.00075481,-0.000
 02890,0.00007319,-0.00009914,-0.00003328,0.00003587,-0.00001341,0.0000
 0624,-0.00006328,-0.00001654,0.00006816,0.00021204,-0.00005307,0.00000
 410,-0.00000709,-0.00001314,-0.00009547,-0.00007830,-0.00002334,0.0001
 4248,-0.00018392,-0.00002885,0.00023462,-0.00026109,0.00026452,0.00002
 535,0.00003112,-0.00004952,0.00001666,-0.00004243,-0.00004694,-0.01635
 385,0.02654475,-0.02030658,-0.00423551,-0.02665434,0.03456328,0.005624
 59,0.00267015,0.00110523,0.02904010,0.01996680,-0.10558139,-0.01593115
 ,0.01539122,0.00208374,-0.20958876,-0.20557477,0.48868555,0.00018490,-
 0.00000789,0.00004814,-0.00001937,-0.00048926,0.00006464,0.00001890,0.
 00005829,-0.00006273,-0.00001428,0.00003615,0.00001525,-0.00003040,0.0
 0016334,0.00005776,-0.00001037,-0.00000377,0.00000330,-0.00017445,-0.0
 0010016,-0.00042338,-0.00010204,-0.00015744,0.00024702,0.00013580,0.00
 001310,0.00008851,0.00203280,0.00587343,-0.00156011,0.00038576,-0.0004
 0649,-0.00023411,0.00032043,0.00008972,0.00042564,0.00005956,0.0000088
 7,-0.00000423,-0.00036673,0.00018505,0.00047744,0.00000314,-0.00001437
 ,0.00000856,-0.00104169,-0.00018056,-0.00129941,0.00031461,-0.00011895
 ,0.00020045,0.00000611,-0.00054752,0.00184720,-0.00004684,-0.00002498,
 -0.00000784,-0.00004048,0.00002272,-0.00000924,-0.04312163,0.04510213,
 -0.00336347,-0.02325263,-0.01866286,0.02909219,-0.00016117,-0.00084120
 ,0.00032315,0.04174885,0.00106474,-0.02664154,-0.00122638,0.00536979,0
 .00156749,-0.11626673,0.03099450,0.01143989,0.58728237,0.00028370,-0.0
 0006583,0.00027230,0.00057940,0.00030798,0.00013400,0.00001697,-0.0000
 0893,-0.00030575,0.00003236,-0.00010207,0.00003584,-0.00013864,0.00023
 556,0.00012232,0.00000457,-0.00001195,0.00000278,0.00009320,-0.0001122
 5,-0.00002141,-0.00008366,-0.00023244,0.00006174,0.00027015,0.00030038
 ,-0.00132233,0.00648714,-0.00021350,0.00316718,0.00001364,-0.00034345,
 -0.00005484,-0.00005731,-0.00001709,0.00020234,0.00002189,0.00004567,-
 0.00000828,-0.00009828,0.00009704,0.00002870,0.00000255,0.00000812,0.0
 0000953,-0.00076098,0.00011534,-0.00054059,0.00015363,-0.00018376,-0.0
 0008239,-0.00026618,-0.00008184,0.00121511,-0.00007038,0.00001019,-0.0
 0004812,-0.00007356,0.00004541,-0.00004297,0.00670967,0.02795615,-0.02
 624100,-0.01844843,-0.01614668,0.02189423,-0.00085679,-0.00016088,-0.0
 0005021,0.03812734,-0.03536154,0.01035045,0.00511351,0.00049729,0.0023
 2539,-0.01932852,-0.22106337,0.15583918,-0.19505267,0.54092400,-0.0002
 0333,0.00003611,0.00001019,-0.00027445,-0.00048370,0.00001047,0.000222
 85,0.00001601,0.00026370,0.00001545,0.00017208,-0.00001713,0.00017715,
 -0.00040226,-0.00013963,0.00001858,0.00000518,-0.00000374,0.00006996,0
 .00039650,0.00037505,0.00013502,0.00026679,-0.00030921,0.00064270,-0.0
 0058278,-0.00033247,-0.00076959,0.00157119,0.00517659,0.00003732,-0.00
 012362,0.00027658,-0.00013636,-0.00004602,-0.00020316,-0.00001873,0.00
 009674,0.00001718,0.00006653,-0.00038045,-0.00012563,-0.00000067,0.000
 00298,-0.00000441,0.00036729,0.00029776,0.00049554,-0.00018447,0.00025
 500,-0.00004163,-0.00042442,0.00084039,-0.00061583,0.00007061,0.000025
 54,-0.00001699,0.00006582,-0.00005583,-0.00001262,0.03161495,-0.051565
 76,0.03241483,0.02951411,0.02276502,-0.04969996,0.00029433,-0.00004542
 ,-0.00109147,-0.06123332,0.03886466,0.01910480,0.00199128,0.00206041,0
 .00421165,0.05697994,0.11582148,-0.21491099,-0.17307400,-0.20951691,0.
 46177219,0.00012316,-0.00000003,-0.00009078,-0.00002940,-0.00007092,-0
 .00006305,-0.00007744,0.00000820,-0.00009009,-0.00000504,0.00000520,-0
 .00000909,-0.00014249,0.00002001,0.00008300,-0.00000922,0.00000089,-0.
 00000237,0.00014284,0.00000146,0.00009843,-0.00000415,-0.00002271,0.00
 001193,-0.00023165,-0.00001908,0.00018551,0.00002297,0.00097897,-0.000
 88313,0.00005096,-0.00004307,-0.00003643,0.00009360,0.00000671,0.00013
 145,0.00000499,0.00000869,0.00000278,-0.00015181,-0.00000585,0.0001303
 7,-0.00000065,0.00000128,0.00001160,-0.00011548,-0.00001600,-0.0002159
 7,-0.00000318,-0.00000046,-0.00001387,0.00001178,-0.00010098,0.0002237
 4,-0.00004291,-0.00003795,0.00003069,-0.00003420,0.00003336,0.00002574
 ,-0.00089337,0.00104772,0.00581430,-0.00026298,-0.00084392,0.00019741,
 -0.00028291,-0.00024637,-0.00041949,0.00300105,0.00095618,0.00263699,0
 .00015628,-0.00020851,0.00011154,0.00566870,-0.00360588,0.00188925,-0.
 19559182,0.14922527,-0.01202087,0.20079249,-0.00000292,0.00000281,0.00
 004518,0.00004462,-0.00000780,-0.00000733,0.00000644,0.00000994,-0.000
 02601,0.00000219,-0.00000195,0.00000050,-0.00001291,0.00002349,-0.0000
 0199,0.00000136,0.00000009,0.00000072,0.00001041,-0.00002544,-0.000048
 16,-0.00001857,-0.00002924,0.00000104,0.00000689,-0.00007601,-0.000037
 78,-0.00003099,0.00027797,0.00011889,-0.00003051,-0.00001877,-0.000033
 08,0.00000695,0.00001498,-0.00000121,-0.00000112,-0.00000238,-0.000002
 12,-0.00000218,0.00001240,-0.00000936,0.00000307,-0.00000060,-0.000005
 65,0.00003239,-0.00003212,-0.00001989,0.00003813,-0.00001199,0.0000050
 4,0.00004453,-0.00005548,0.00002154,0.00000458,0.00000487,-0.00001313,
 0.00000251,-0.00000861,-0.00001214,0.00093799,0.00380793,0.00267049,-0
 .00092480,-0.00021872,0.00011164,-0.00023405,-0.00038242,-0.00046039,0
 .00064876,0.00045263,0.00570755,0.00078853,-0.00061420,-0.00001313,0.0
 1615436,-0.00950857,-0.00047921,0.14936730,-0.19713985,0.02546807,-0.1
 6222457,0.20148387,-0.00000569,0.00000047,0.00006754,0.00010955,0.0001
 0735,0.00002418,0.00002072,0.00000186,-0.00002943,0.00000871,-0.000022
 09,0.00000654,0.00000847,0.00003152,-0.00000401,0.00000338,0.00000086,
 0.00000111,0.00000128,-0.00006126,-0.00005812,-0.00000737,-0.00001197,
 0.00000198,0.00010233,0.00001236,-0.00019415,0.00063549,-0.00053807,0.
 00047746,-0.00006497,0.00000374,-0.00002579,-0.00001160,0.00000399,-0.
 00002839,-0.00000342,-0.00000388,-0.00000339,0.00002687,0.00001765,-0.
 00004906,0.00000363,-0.00000187,-0.00000971,0.00006482,-0.00004052,0.0
 0002837,0.00002552,-0.00001977,0.00000855,-0.00000049,-0.00002403,-0.0
 0002926,0.00000399,0.00001096,-0.00001715,0.00000208,-0.00001100,-0.00
 001520,0.00517227,0.00244322,0.00102535,0.00016500,0.00011703,-0.00120
 009,-0.00039606,-0.00046109,-0.00037424,0.00307491,0.00551829,0.000059
 02,-0.00081996,0.00074641,-0.00002847,-0.01601314,0.01542462,0.0025541
 2,-0.01251352,0.02522650,-0.05171154,0.00986586,-0.03051928,0.04639405
 ,-0.00034129,0.00004844,-0.00022689,-0.00232710,-0.00088177,-0.0004702
 9,0.00059794,0.00002276,0.00139991,-0.00007724,0.00023465,-0.00007862,
 0.00076715,-0.00065968,-0.00074110,0.00000401,-0.00000869,-0.00000884,
 -0.00045433,0.00055333,0.00011112,0.00023855,0.00046621,-0.00047792,0.
 00245173,-0.00036517,0.00382448,-0.03041044,0.01558238,0.00772192,-0.0
 0021068,-0.00045715,0.00156095,-0.00110040,0.00000484,-0.00112000,-0.0
 0000735,-0.00002770,0.00002113,0.00107403,0.00020627,-0.00077266,0.000
 00118,-0.00003212,0.00000723,0.00047502,0.00069756,0.00138775,0.000047
 31,-0.00032315,0.00008078,-0.00070575,0.00242374,-0.00465376,0.0001035
 7,0.00002006,0.00001648,0.00010179,-0.00003989,0.00002126,-0.20394208,
 0.09869016,0.01905629,0.03988271,0.03815405,-0.05565756,0.00262044,0.0
 0015128,0.00277920,-0.06265831,0.02544399,0.01908519,-0.00124993,0.000
 31587,-0.00006841,0.02382272,-0.06634517,0.04711589,-0.25599049,0.0435
 9094,0.10986319,-0.01130822,-0.00189454,0.01389744,0.55006308,0.000049
 53,0.00000290,-0.00042786,-0.00042585,-0.00046855,0.00004211,-0.000298
 07,0.00003255,-0.00004215,-0.00005913,0.00001547,-0.00000085,-0.000124
 40,0.00018196,0.00022034,-0.00003660,-0.00001972,-0.00000522,-0.000034
 86,0.00012413,0.00011849,-0.00004476,-0.00027257,0.00028311,-0.0019773
 5,0.00037409,0.00059090,0.00273716,0.00462759,-0.00512233,0.00056436,-
 0.00003078,-0.00053389,0.00080008,0.00020458,0.00063352,0.00004611,0.0
 0004233,0.00002987,-0.00071043,-0.00023869,0.00086760,-0.00000484,0.00
 000509,0.00002484,-0.00055999,-0.00072905,-0.00187122,0.00061506,0.000
 13444,-0.00089980,-0.00047685,-0.00128472,0.00250323,-0.00003648,-0.00
 008415,0.00011196,-0.00001706,0.00005893,0.00009615,0.14521118,-0.2066
 8967,0.02030827,0.00106854,-0.03574113,0.03887460,0.00072104,0.0003710
 9,0.00517778,0.02634025,-0.01569112,-0.01214847,0.00032112,-0.00020173
 ,-0.00077841,-0.02814634,0.02897640,0.00247389,-0.00602607,-0.10816445
 ,0.04266479,0.01781621,0.00374163,-0.01403732,-0.14364641,0.53043465,-
 0.00050563,0.00000531,0.00050066,0.00045945,0.00094955,0.00062582,0.00
 044624,-0.00006538,0.00040503,0.00003142,-0.00014407,0.00009040,0.0008
 2634,0.00004082,-0.00046744,0.00002913,0.00001397,0.00001849,-0.000906
 00,-0.00025385,-0.00083700,0.00009029,0.00012964,0.00016154,0.00233021
 ,-0.00001630,-0.00196422,0.01333204,-0.01371979,0.00842402,-0.00043544
 ,0.00053758,0.00091479,-0.00083293,0.00004365,-0.00113608,0.00003178,-
 0.00022054,0.00001490,0.00155210,0.00048280,-0.00074697,-0.00001732,-0
 .00002731,-0.00002496,0.00045070,-0.00114605,-0.00072124,0.00072359,-0
 .00096717,-0.00164663,-0.00033158,-0.00011523,-0.00255015,0.00016410,0
 .00017024,-0.00014616,0.00015104,-0.00016476,-0.00012467,-0.01556718,0
 .05328533,-0.10551101,-0.02521918,0.01039943,0.01887093,0.00224550,0.0
 0551166,-0.00032141,0.01949592,-0.01218785,-0.01073207,-0.00006729,-0.
 00085091,-0.00022831,0.01246167,0.03130377,-0.03057581,0.15603606,0.00
 579605,-0.18973945,-0.00417352,0.00139461,0.00543673,-0.18968557,-0.23
 669229,0.49876250,-0.00018047,0.00006626,-0.00012173,0.00011427,0.0001
 3809,0.00003999,-0.00011334,-0.00001357,-0.00008702,-0.00000100,-0.000
 02402,-0.00000385,-0.00005969,0.00001529,0.00006110,-0.00000054,0.0000
 0606,0.00000042,0.00006202,-0.00004360,0.00003876,0.00001735,0.0000191
 1,0.00000871,-0.00037379,-0.00000385,0.00003364,0.00024708,-0.00033679
 ,-0.00274781,-0.00009601,-0.00004213,0.00008560,0.00003947,0.00002683,
 -0.00014634,-0.00001703,0.00001183,0.00000245,0.00001981,-0.00005208,-
 0.00005486,0.00000882,-0.00000091,-0.00002588,0.00050164,0.00002905,0.
 00047453,0.00003062,-0.00009756,-0.00010061,-0.00008807,-0.00006442,-0
 .00021112,0.00004467,-0.00000795,0.00001701,0.00004552,-0.00004417,0.0
 0001721,0.00426310,0.01528609,-0.01387367,-0.00144065,0.00484699,0.001
 74028,0.00024425,0.00087645,-0.00073796,-0.00118413,0.00015715,0.00006
 696,-0.00016667,-0.00038593,-0.00039163,-0.00168949,0.00244645,0.00508
 860,0.00286999,-0.01770193,0.01656812,-0.00028047,-0.00126110,-0.00197
 057,-0.05466759,-0.01525100,0.02499453,0.05189188,0.00028626,-0.000017
 18,-0.00000123,0.00021080,0.00009154,-0.00008532,-0.00017642,-0.000033
 67,-0.00027048,0.00000408,-0.00001732,-0.00000839,-0.00027716,0.000012
 95,0.00017133,-0.00000752,0.00000084,-0.00000340,0.00024341,-0.0000213
 9,0.00025198,-0.00001849,-0.00002015,-0.00002667,-0.00058066,0.0001513
 3,-0.00017231,-0.00138668,-0.00096249,-0.00024590,-0.00054451,0.000187
 95,0.00005339,-0.00021840,-0.00006552,-0.00010861,-0.00004476,-0.00004
 083,-0.00000899,0.00010673,0.00010288,-0.00026893,-0.00000296,0.000010
 79,0.00002202,0.00052180,0.00014796,0.00034620,-0.00034711,-0.00055398
 ,-0.00039921,0.00063614,-0.00013620,-0.00096586,-0.00009542,-0.0000518
 4,0.00003071,-0.00009174,0.00007517,0.00002093,-0.00442948,-0.00969707
 ,0.01528826,0.00531144,0.00038999,0.00149291,-0.00014468,-0.00050340,0
 .00086874,0.00016183,-0.00015276,-0.00082220,-0.00037904,-0.00038361,-
 0.00035194,0.00219862,0.00352404,0.00188324,0.00198793,0.00429908,-0.0
 0178686,-0.00152962,-0.00101032,-0.00166907,-0.01380514,-0.19936170,0.
 15083405,0.01231440,0.20397020,0.00010216,0.00000235,-0.00007768,0.000
 11032,0.00003586,-0.00007724,-0.00016076,-0.00000150,-0.00017237,-0.00
 000187,-0.00000834,-0.00000982,-0.00020365,0.00001029,0.00014623,-0.00
 000869,0.00000379,-0.00000325,0.00018979,-0.00003453,0.00021672,0.0000
 0381,0.00000669,0.00000093,-0.00070458,0.00012777,0.00000873,-0.000191
 88,-0.00195027,-0.00151995,-0.00026907,0.00031525,-0.00010090,0.000147
 23,0.00001530,-0.00005648,-0.00001245,0.00000095,0.00000907,0.00005673
 ,-0.00012405,-0.00006195,-0.00000823,-0.00000145,0.00000241,0.00016734
 ,-0.00075680,-0.00069994,0.00007875,-0.00037593,-0.00040957,0.00043632
 ,-0.00036158,-0.00022650,-0.00004027,-0.00003486,0.00003294,-0.0000379
 4,0.00003324,0.00002570,0.00140132,0.00083068,0.00156444,0.00123649,0.
 00202221,0.00368879,0.00020905,0.00007817,0.00011498,0.00003370,-0.000
 84330,-0.00008313,-0.00036882,-0.00034808,-0.00049143,0.00541014,0.001
 51697,0.00194576,-0.00057428,0.01367131,-0.00760174,-0.00167865,-0.001
 92631,-0.00121521,0.02434161,0.15137644,-0.18748745,-0.02958720,-0.163
 90246,0.19306136,0.00002700,0.00000116,-0.00007583,0.00001093,0.000029
 73,-0.00000284,-0.00005871,-0.00000072,-0.00003140,0.00000045,-0.00000
 472,-0.00000119,-0.00004758,-0.00000508,0.00005021,-0.00000659,0.00000
 106,-0.00000085,0.00004974,-0.00003546,0.00008904,0.00001672,0.0000320
 9,0.00002667,-0.00013719,-0.00001870,-0.00003299,-0.00015048,-0.000333
 36,-0.00042807,-0.00001226,0.00005959,0.00000550,0.00002266,-0.0000033
 4,0.00000332,-0.00000190,-0.00001034,0.00000004,-0.00002087,0.00000723
 ,0.00001755,-0.00000011,0.00000015,0.00000161,0.00003083,-0.00002178,0
 .00000100,-0.00001498,-0.00000303,-0.00001006,0.00001934,-0.00001490,-
 0.00006613,-0.00001583,-0.00001582,0.00002281,-0.00001187,0.00001478,0
 .00002062,0.00011795,0.00001492,-0.00072531,-0.00003304,0.00553252,0.0
 0084413,-0.00067732,-0.00019250,0.00065870,-0.01131198,-0.00270146,0.0
 1439577,-0.00028936,-0.00148844,-0.00165215,-0.23488068,0.00422300,0.1
 4606393,0.00209426,0.00221141,-0.00037499,-0.00060146,-0.00146275,-0.0
 0138551,0.00319996,0.00158584,0.00188953,-0.00004155,0.00009635,-0.000
 07640,0.24272390,-0.00001523,-0.00000035,-0.00002323,0.00002928,0.0000
 5182,-0.00003708,-0.00004626,-0.00001062,-0.00003862,0.00000121,-0.000
 00787,-0.00000439,-0.00005357,0.00000504,0.00003571,-0.00000137,0.0000
 0063,-0.00000099,0.00006796,-0.00000258,0.00010538,-0.00000334,-0.0000
 0662,-0.00002197,-0.00022301,0.00000237,-0.00001029,-0.00031084,-0.000
 28013,-0.00041457,-0.00004411,0.00004991,0.00001839,-0.00002228,-0.000
 00639,-0.00005279,-0.00000500,-0.00000740,-0.00000064,0.00004353,0.000
 00364,-0.00004036,-0.00000055,0.00000059,-0.00000145,0.00008574,-0.000
 00833,0.00009075,-0.00002291,-0.00000323,-0.00000944,0.00005158,0.0000
 0768,-0.00021408,0.00000296,0.00000007,0.00000477,0.00000259,0.0000016
 3,0.00000431,0.00027845,-0.00133121,0.00035346,0.00499137,-0.00027570,
 0.00323594,0.00082943,0.00007520,-0.00071875,0.01734518,0.00465451,-0.
 01366207,-0.00188233,-0.00067942,-0.00168565,0.00426508,-0.05193647,0.
 00746021,-0.01770287,0.00456767,0.01336290,-0.00113424,-0.00068812,-0.
 00224561,0.00188005,-0.00034982,0.00567308,-0.00090906,0.00006471,0.00
 062222,-0.00749745,0.04610879,-0.00007638,0.00001541,-0.00001371,0.000
 01271,0.00006821,-0.00001282,-0.00001898,-0.00000313,0.00001203,0.0000
 0143,-0.00001239,-0.00000151,0.00000804,0.00000817,-0.00000026,-0.0000
 0004,0.00000043,0.00000006,0.00000889,-0.00003070,0.00005394,-0.000002
 46,0.00000244,-0.00001013,-0.00010930,-0.00002113,-0.00000830,-0.00042
 263,-0.00043899,-0.00038817,-0.00000378,0.00004605,0.00000616,-0.00000
 459,0.00000291,-0.00006208,-0.00000176,-0.00000729,-0.00000024,0.00005
 286,-0.00000718,-0.00002521,0.00000091,0.00000176,-0.00000615,0.000079
 43,-0.00005108,0.00006473,0.00001993,0.00003429,0.00002438,0.00001044,
 -0.00001653,-0.00015788,0.00002244,0.00000664,-0.00000234,0.00002068,-
 0.00001815,-0.00000192,-0.00072966,0.00000446,-0.00024726,0.00106144,0
 .00308398,0.00393987,-0.00023913,0.00005057,0.00010478,-0.00377706,0.0
 0157820,0.00569316,-0.00129291,-0.00192601,-0.00141317,0.14604214,0.00
 746748,-0.15872108,0.01782517,-0.00212016,-0.00755117,-0.00175327,-0.0
 0192913,-0.00109178,0.00166982,0.00616192,0.00073522,0.00082234,-0.000
 16592,-0.00052345,-0.15922671,-0.01178514,0.15960429\\-0.00000053,0.00
 000132,-0.00000068,-0.00000035,0.00000135,-0.00000072,0.00000007,0.000
 00165,-0.00000118,0.00000002,0.00000223,-0.00000135,0.00000054,0.00000
 115,-0.00000090,0.00000075,0.00000133,-0.00000110,0.00000040,0.0000005
 0,-0.00000057,0.00000079,0.,-0.00000034,0.00000032,0.00000057,-0.00000
 050,-0.00000005,0.00000005,0.00000003,-0.00000076,0.00000102,-0.000000
 01,-0.00000101,0.00000097,-0.00000010,-0.00000133,0.00000149,-0.000000
 41,-0.00000117,0.00000023,0.00000022,-0.00000140,0.00000013,0.00000043
 ,-0.00000068,-0.00000019,0.00000051,-0.00000054,-0.00000078,0.00000070
 ,-0.00000036,0.00000023,0.00000005,-0.00000111,0.00000215,-0.00000084,
 0.,0.00000201,-0.00000117,0.00000026,-0.00000074,0.00000034,0.00000110
 ,-0.00000095,0.00000007,0.00000142,-0.00000062,-0.00000022,0.00000136,
 -0.00000176,0.00000050,0.00000192,-0.00000195,0.00000040,0.00000077,-0
 .00000218,0.00000102,0.00000002,-0.00000189,0.00000113,-0.00000041,-0.
 00000228,0.00000157,-0.00000014,-0.00000127,0.00000082,-0.00000087,-0.
 00000103,0.00000101,0.00000097,-0.00000275,0.00000129\\\@


 MICRO CREDO - NEVER TRUST A COMPUTER BIGGER
               BIGGER THAN YOU CAN LIFT.
 Warning:  fchk array  ILSW element          12 has value       6710886400000 set to -1.
 Job cpu time:       0 days  0 hours  3 minutes 23.4 seconds.
 File lengths (MBytes):  RWF=    460 Int=      0 D2E=      0 Chk=     25 Scr=      1
 Normal termination of Gaussian 09 at Fri Sep 28 11:09:55 2018.
