 Entering Gaussian System, Link 0=/lustre1/prg/gaussian/bin/G16_C01_Linda9.2_SSE4/g16/g16
 Initial command:
 /lustre1/prg/gaussian/bin/G16_C01_Linda9.2_SSE4/g16/l1.exe "/lustre1/prg/webmo/data/webmo20/toliste/4406/scratch/Gau-1769309.inp" -scrdir="/lustre1/prg/webmo/data/webmo20/toliste/4406/scratch/"
 Default is to use a total of  12 processors:
                               12 via shared-memory
                                1 via Linda
 Entering Link 1 = /lustre1/prg/gaussian/bin/G16_C01_Linda9.2_SSE4/g16/l1.exe PID=   1769310.
  
 Copyright (c) 1988-2019, Gaussian, Inc.  All Rights Reserved.
  
 This is part of the Gaussian(R) 16 program.  It is based on
 the Gaussian(R) 09 system (copyright 2009, Gaussian, Inc.),
 the Gaussian(R) 03 system (copyright 2003, Gaussian, Inc.),
 the Gaussian(R) 98 system (copyright 1998, Gaussian, Inc.),
 the Gaussian(R) 94 system (copyright 1995, Gaussian, Inc.),
 the Gaussian 92(TM) system (copyright 1992, Gaussian, Inc.),
 the Gaussian 90(TM) system (copyright 1990, Gaussian, Inc.),
 the Gaussian 88(TM) system (copyright 1988, Gaussian, Inc.),
 the Gaussian 86(TM) system (copyright 1986, Carnegie Mellon
 University), and the Gaussian 82(TM) system (copyright 1983,
 Carnegie Mellon University). Gaussian is a federally registered
 trademark of Gaussian, Inc.
  
 This software contains proprietary and confidential information,
 including trade secrets, belonging to Gaussian, Inc.
  
 This software is provided under written license and may be
 used, copied, transmitted, or stored only in accord with that
 written license.
  
 The following legend is applicable only to US Government
 contracts under FAR:
  
                    RESTRICTED RIGHTS LEGEND
  
 Use, reproduction and disclosure by the US Government is
 subject to restrictions as set forth in subparagraphs (a)
 and (c) of the Commercial Computer Software - Restricted
 Rights clause in FAR 52.227-19.
  
 Gaussian, Inc.
 340 Quinnipiac St., Bldg. 40, Wallingford CT 06492
  
  
 ---------------------------------------------------------------
 Warning -- This program may not be used in any manner that
 competes with the business of Gaussian, Inc. or will provide
 assistance to any competitor of Gaussian, Inc.  The licensee
 of this program is prohibited from giving any competitor of
 Gaussian, Inc. access to this program.  By using this program,
 the user acknowledges that Gaussian, Inc. is engaged in the
 business of creating and licensing software in the field of
 computational chemistry and represents and warrants to the
 licensee that it is not a competitor of Gaussian, Inc. and that
 it will not use this program in any manner prohibited above.
 ---------------------------------------------------------------
  

 Cite this work as:
 Gaussian 16, Revision C.01,
 M. J. Frisch, G. W. Trucks, H. B. Schlegel, G. E. Scuseria, 
 M. A. Robb, J. R. Cheeseman, G. Scalmani, V. Barone, 
 G. A. Petersson, H. Nakatsuji, X. Li, M. Caricato, A. V. Marenich, 
 J. Bloino, B. G. Janesko, R. Gomperts, B. Mennucci, H. P. Hratchian, 
 J. V. Ortiz, A. F. Izmaylov, J. L. Sonnenberg, D. Williams-Young, 
 F. Ding, F. Lipparini, F. Egidi, J. Goings, B. Peng, A. Petrone, 
 T. Henderson, D. Ranasinghe, V. G. Zakrzewski, J. Gao, N. Rega, 
 G. Zheng, W. Liang, M. Hada, M. Ehara, K. Toyota, R. Fukuda, 
 J. Hasegawa, M. Ishida, T. Nakajima, Y. Honda, O. Kitao, H. Nakai, 
 T. Vreven, K. Throssell, J. A. Montgomery, Jr., J. E. Peralta, 
 F. Ogliaro, M. J. Bearpark, J. J. Heyd, E. N. Brothers, K. N. Kudin, 
 V. N. Staroverov, T. A. Keith, R. Kobayashi, J. Normand, 
 K. Raghavachari, A. P. Rendell, J. C. Burant, S. S. Iyengar, 
 J. Tomasi, M. Cossi, J. M. Millam, M. Klene, C. Adamo, R. Cammi, 
 J. W. Ochterski, R. L. Martin, K. Morokuma, O. Farkas, 
 J. B. Foresman, and D. J. Fox, Gaussian, Inc., Wallingford CT, 2019.
 
 ******************************************
 Gaussian 16:  ES64L-G16RevC.01  3-Jul-2019
                 1-Feb-2022 
 ******************************************
 %LindaWorkers=fizika79,fizika80,fizika81,fizika85,fizika86,fizika87,fizika88,fiz
 ika89
 %chk=bodipy.chk
 SetLPE:  input flags=" -opt "Tsnet.Node.lindarsharg: ssh" "
 SetLPE:    new flags=" -opt "Tsnet.Node.lindarsharg: ssh" -opt 'Tsnet.Node.lindarsharg: ssh'  -nodelist 'fizika79.fizika.bullx fizika80.fizika.bullx fizika81.fizika.bullx fizika85.fizika.bullx fizika86.fizika.bullx fizika87.fizika.bullx fizika88.fizika.bullx fizika89.fizika.bullx' -env GAUSS_MDEF=11408506880 -env GAUSS_EXEDIR="/lustre1/prg/gaussian/bin/G16_C01_Linda9.2_SSE4/g16/bsd:/lustre1/prg/gaussian/bin/G16_C01_Linda9.2_SSE4/g16/private:/lustre1/prg/gaussian/bin/G16_C01_Linda9.2_SSE4/g16""
 Will use up to    8 processors via Linda.
 ----------------------------------------------------------------------
 #p m062x cc-pvdz scrf=(cpcm,solvent=Methanol) opt=(tight,calcfc) freq 
 nosymm int=ultrafine fchk
 ----------------------------------------------------------------------
 1/7=10,10=4,18=20,19=15,26=6,38=1/1,3;
 2/9=110,12=2,15=1,17=6,18=5,40=1/2;
 3/5=16,11=2,25=1,30=1,70=2101,71=2,72=3,74=-55,75=-5,140=1/1,2,3;
 4//1;
 5/5=2,38=5,53=3/2;
 8/6=4,10=90,11=11/1;
 11/6=1,8=1,9=11,15=111,16=1,31=1/1,2,10;
 10/6=1,13=1,31=1/2;
 6/7=2,8=2,9=2,10=2,28=1/1;
 7/10=1,25=1,30=1/1,2,3,16;
 1/7=10,10=4,18=20,19=15,26=6/3(2);
 2/9=110,15=1/2;
 99//99;
 2/9=110,15=1/2;
 3/5=16,11=2,25=1,30=1,70=2105,71=1,72=3,74=-55,75=-5/1,2,3;
 4/5=5,16=3,69=1/1;
 5/5=2,38=5,53=3/2;
 7/30=1/1,2,3,16;
 1/7=10,18=20,19=15,26=6/3(-5);
 2/9=110,15=1/2;
 6/7=2,8=2,9=2,10=2,19=2,28=1/1;
 99/9=1/99;
 Leave Link    1 at Tue Feb  1 06:36:11 2022, MaxMem=           0 cpu:               1.5 elap:               0.1
 (Enter /lustre1/prg/gaussian/bin/G16_C01_Linda9.2_SSE4/g16/l101.exe)
 --------------------------------------
 BDP-PP-phenyl, optimized S0 in toluene
 --------------------------------------
 Symbolic Z-matrix:
 Charge =  0 Multiplicity = 1
 N                     12.39581  -9.43047  -1.15056 
 C                     13.16878  -9.79628  -2.1725 
 C                     14.05557  -8.74748  -2.5266 
 C                     13.76915  -7.69799  -1.65404 
 C                     12.73854  -8.13438  -0.7871 
 C                     11.50525  -5.11081   0.77483 
 C                     11.87304  -3.81765   1.13784 
 C                     13.20848  -3.51879   1.4089 
 C                     14.17896  -4.51621   1.31041 
 C                     13.81942  -5.80797   0.93432 
 C                     12.47776  -6.11559   0.66545 
 C                     12.0868  -7.48754   0.27582 
 C                     11.0696  -8.15043   0.98221 
 C                     10.3545  -7.77864   2.14614 
 C                     9.52116  -8.84442   2.48425 
 C                     9.76185  -9.84664   1.5097 
 N                     10.67226  -9.43293   0.62893 
 F                     11.58821  -11.51067  -0.20317 
 B                     11.1845  -10.24286  -0.59936 
 F                     10.19173  -10.32066  -1.57008 
 H                     13.04549  -10.77447  -2.63299 
 H                     14.24571  -6.72228  -1.62079 
 H                     10.46396  -5.345     0.54926 
 H                     11.11241  -3.03959   1.20679 
 H                     13.49343  -2.50685   1.69856 
 H                     15.22226  -4.28938   1.53118 
 H                     14.57368  -6.59365   0.87378 
 H                     10.48369  -6.84625   2.68893 
 H                     9.30825  -10.83073   1.41109 
 C                     15.05147  -8.7853   -3.60914 
 C                     15.52814  -7.59782  -4.18336 
 C                     15.54458  -10.0073  -4.08947 
 C                     16.47218  -7.63155  -5.20612 
 C                     16.48434  -10.0403  -5.11694 
 C                     16.95362  -8.85304  -5.67885 
 H                     15.14086  -6.63831  -3.83677 
 H                     15.20244  -10.94271  -3.6436 
 H                     16.82842  -6.69758  -5.64237 
 H                     16.85707  -11.00041  -5.47573 
 H                     17.69054  -8.87921  -6.48211 
 C                     8.58386  -8.94185   3.61427 
 C                     8.07249  -7.78421   4.2187 
 C                     8.18352  -10.19066   4.11165 
 C                     7.18987  -7.87279   5.29191 
 C                     7.29549  -10.2784   5.18098 
 C                     6.79592  -9.12038   5.77694 
 H                     8.35648  -6.8044    3.83115 
 H                     8.58439  -11.10417   3.66934 
 H                     6.80073  -6.96132   5.74723 
 H                     6.99756  -11.25855   5.55508 
 H                     6.10196  -9.18962   6.61514 
 
 ITRead=  0  0  0  0  0  0  0  0  0  0  0  0  0  0  0  0  0  0  0  0
 ITRead=  0  0  0  0  0  0  0  0  0  0  0  0  0  0  0  0  0  0  0  0
 ITRead=  0  0  0  0  0  0  0  0  0  0  0
 MicOpt= -1 -1 -1 -1 -1 -1 -1 -1 -1 -1 -1 -1 -1 -1 -1 -1 -1 -1 -1 -1
 MicOpt= -1 -1 -1 -1 -1 -1 -1 -1 -1 -1 -1 -1 -1 -1 -1 -1 -1 -1 -1 -1
 MicOpt= -1 -1 -1 -1 -1 -1 -1 -1 -1 -1 -1
 NAtoms=     51 NQM=       51 NQMF=       0 NMMI=      0 NMMIF=      0
                NMic=       0 NMicF=      0.
                    Isotopes and Nuclear Properties:
 (Nuclear quadrupole moments (NQMom) in fm**2, nuclear magnetic moments (NMagM)
  in nuclear magnetons)

  Atom         1           2           3           4           5           6           7           8           9          10
 IAtWgt=          14          12          12          12          12          12          12          12          12          12
 AtmWgt=  14.0030740  12.0000000  12.0000000  12.0000000  12.0000000  12.0000000  12.0000000  12.0000000  12.0000000  12.0000000
 NucSpn=           2           0           0           0           0           0           0           0           0           0
 AtZEff=  -0.0000000  -0.0000000  -0.0000000  -0.0000000  -0.0000000  -0.0000000  -0.0000000  -0.0000000  -0.0000000  -0.0000000
 NQMom=    2.0440000   0.0000000   0.0000000   0.0000000   0.0000000   0.0000000   0.0000000   0.0000000   0.0000000   0.0000000
 NMagM=    0.4037610   0.0000000   0.0000000   0.0000000   0.0000000   0.0000000   0.0000000   0.0000000   0.0000000   0.0000000
 AtZNuc=   7.0000000   6.0000000   6.0000000   6.0000000   6.0000000   6.0000000   6.0000000   6.0000000   6.0000000   6.0000000

  Atom        11          12          13          14          15          16          17          18          19          20
 IAtWgt=          12          12          12          12          12          12          14          19          11          19
 AtmWgt=  12.0000000  12.0000000  12.0000000  12.0000000  12.0000000  12.0000000  14.0030740  18.9984033  11.0093053  18.9984033
 NucSpn=           0           0           0           0           0           0           2           1           3           1
 AtZEff=  -0.0000000  -0.0000000  -0.0000000  -0.0000000  -0.0000000  -0.0000000  -0.0000000  -0.0000000  -0.0000000  -0.0000000
 NQMom=    0.0000000   0.0000000   0.0000000   0.0000000   0.0000000   0.0000000   2.0440000   0.0000000   4.0590000   0.0000000
 NMagM=    0.0000000   0.0000000   0.0000000   0.0000000   0.0000000   0.0000000   0.4037610   2.6288670   2.6886370   2.6288670
 AtZNuc=   6.0000000   6.0000000   6.0000000   6.0000000   6.0000000   6.0000000   7.0000000   9.0000000   5.0000000   9.0000000

  Atom        21          22          23          24          25          26          27          28          29          30
 IAtWgt=           1           1           1           1           1           1           1           1           1          12
 AtmWgt=   1.0078250   1.0078250   1.0078250   1.0078250   1.0078250   1.0078250   1.0078250   1.0078250   1.0078250  12.0000000
 NucSpn=           1           1           1           1           1           1           1           1           1           0
 AtZEff=  -0.0000000  -0.0000000  -0.0000000  -0.0000000  -0.0000000  -0.0000000  -0.0000000  -0.0000000  -0.0000000  -0.0000000
 NQMom=    0.0000000   0.0000000   0.0000000   0.0000000   0.0000000   0.0000000   0.0000000   0.0000000   0.0000000   0.0000000
 NMagM=    2.7928460   2.7928460   2.7928460   2.7928460   2.7928460   2.7928460   2.7928460   2.7928460   2.7928460   0.0000000
 AtZNuc=   1.0000000   1.0000000   1.0000000   1.0000000   1.0000000   1.0000000   1.0000000   1.0000000   1.0000000   6.0000000

  Atom        31          32          33          34          35          36          37          38          39          40
 IAtWgt=          12          12          12          12          12           1           1           1           1           1
 AtmWgt=  12.0000000  12.0000000  12.0000000  12.0000000  12.0000000   1.0078250   1.0078250   1.0078250   1.0078250   1.0078250
 NucSpn=           0           0           0           0           0           1           1           1           1           1
 AtZEff=  -0.0000000  -0.0000000  -0.0000000  -0.0000000  -0.0000000  -0.0000000  -0.0000000  -0.0000000  -0.0000000  -0.0000000
 NQMom=    0.0000000   0.0000000   0.0000000   0.0000000   0.0000000   0.0000000   0.0000000   0.0000000   0.0000000   0.0000000
 NMagM=    0.0000000   0.0000000   0.0000000   0.0000000   0.0000000   2.7928460   2.7928460   2.7928460   2.7928460   2.7928460
 AtZNuc=   6.0000000   6.0000000   6.0000000   6.0000000   6.0000000   1.0000000   1.0000000   1.0000000   1.0000000   1.0000000

  Atom        41          42          43          44          45          46          47          48          49          50
 IAtWgt=          12          12          12          12          12          12           1           1           1           1
 AtmWgt=  12.0000000  12.0000000  12.0000000  12.0000000  12.0000000  12.0000000   1.0078250   1.0078250   1.0078250   1.0078250
 NucSpn=           0           0           0           0           0           0           1           1           1           1
 AtZEff=  -0.0000000  -0.0000000  -0.0000000  -0.0000000  -0.0000000  -0.0000000  -0.0000000  -0.0000000  -0.0000000  -0.0000000
 NQMom=    0.0000000   0.0000000   0.0000000   0.0000000   0.0000000   0.0000000   0.0000000   0.0000000   0.0000000   0.0000000
 NMagM=    0.0000000   0.0000000   0.0000000   0.0000000   0.0000000   0.0000000   2.7928460   2.7928460   2.7928460   2.7928460
 AtZNuc=   6.0000000   6.0000000   6.0000000   6.0000000   6.0000000   6.0000000   1.0000000   1.0000000   1.0000000   1.0000000

  Atom        51
 IAtWgt=           1
 AtmWgt=   1.0078250
 NucSpn=           1
 AtZEff=  -0.0000000
 NQMom=    0.0000000
 NMagM=    2.7928460
 AtZNuc=   1.0000000
 Leave Link  101 at Tue Feb  1 06:36:12 2022, MaxMem= 11408506880 cpu:               8.5 elap:               0.7
 (Enter /lustre1/prg/gaussian/bin/G16_C01_Linda9.2_SSE4/g16/l103.exe)

 GradGradGradGradGradGradGradGradGradGradGradGradGradGradGradGradGradGrad
 Berny optimization.
 Initialization pass.
                           ----------------------------
                           !    Initial Parameters    !
                           ! (Angstroms and Degrees)  !
 --------------------------                            --------------------------
 ! Name  Definition              Value          Derivative Info.                !
 --------------------------------------------------------------------------------
 ! R1    R(1,2)                  1.3325         calculate D2E/DX2 analytically  !
 ! R2    R(1,5)                  1.389          calculate D2E/DX2 analytically  !
 ! R3    R(1,19)                 1.5592         calculate D2E/DX2 analytically  !
 ! R4    R(2,3)                  1.4184         calculate D2E/DX2 analytically  !
 ! R5    R(2,21)                 1.0882         calculate D2E/DX2 analytically  !
 ! R6    R(3,4)                  1.3946         calculate D2E/DX2 analytically  !
 ! R7    R(3,30)                 1.4714         calculate D2E/DX2 analytically  !
 ! R8    R(4,5)                  1.4157         calculate D2E/DX2 analytically  !
 ! R9    R(4,22)                 1.0864         calculate D2E/DX2 analytically  !
 ! R10   R(5,12)                 1.4046         calculate D2E/DX2 analytically  !
 ! R11   R(6,7)                  1.3926         calculate D2E/DX2 analytically  !
 ! R12   R(6,11)                 1.4026         calculate D2E/DX2 analytically  !
 ! R13   R(6,23)                 1.0909         calculate D2E/DX2 analytically  !
 ! R14   R(7,8)                  1.3951         calculate D2E/DX2 analytically  !
 ! R15   R(7,24)                 1.0903         calculate D2E/DX2 analytically  !
 ! R16   R(8,9)                  1.3951         calculate D2E/DX2 analytically  !
 ! R17   R(8,25)                 1.0905         calculate D2E/DX2 analytically  !
 ! R18   R(9,10)                 1.3926         calculate D2E/DX2 analytically  !
 ! R19   R(9,26)                 1.0903         calculate D2E/DX2 analytically  !
 ! R20   R(10,11)                1.4025         calculate D2E/DX2 analytically  !
 ! R21   R(10,27)                1.0908         calculate D2E/DX2 analytically  !
 ! R22   R(11,12)                1.4788         calculate D2E/DX2 analytically  !
 ! R23   R(12,13)                1.4047         calculate D2E/DX2 analytically  !
 ! R24   R(13,14)                1.4157         calculate D2E/DX2 analytically  !
 ! R25   R(13,17)                1.3883         calculate D2E/DX2 analytically  !
 ! R26   R(14,15)                1.3945         calculate D2E/DX2 analytically  !
 ! R27   R(14,28)                1.0866         calculate D2E/DX2 analytically  !
 ! R28   R(15,16)                1.4185         calculate D2E/DX2 analytically  !
 ! R29   R(15,41)                1.4714         calculate D2E/DX2 analytically  !
 ! R30   R(16,17)                1.3326         calculate D2E/DX2 analytically  !
 ! R31   R(16,29)                1.0881         calculate D2E/DX2 analytically  !
 ! R32   R(17,19)                1.5579         calculate D2E/DX2 analytically  !
 ! R33   R(18,19)                1.3883         calculate D2E/DX2 analytically  !
 ! R34   R(19,20)                1.3907         calculate D2E/DX2 analytically  !
 ! R35   R(30,31)                1.4025         calculate D2E/DX2 analytically  !
 ! R36   R(30,32)                1.4026         calculate D2E/DX2 analytically  !
 ! R37   R(31,33)                1.3923         calculate D2E/DX2 analytically  !
 ! R38   R(31,36)                1.0912         calculate D2E/DX2 analytically  !
 ! R39   R(32,34)                1.3928         calculate D2E/DX2 analytically  !
 ! R40   R(32,37)                1.0913         calculate D2E/DX2 analytically  !
 ! R41   R(33,35)                1.3955         calculate D2E/DX2 analytically  !
 ! R42   R(33,38)                1.0907         calculate D2E/DX2 analytically  !
 ! R43   R(34,35)                1.3948         calculate D2E/DX2 analytically  !
 ! R44   R(34,39)                1.0906         calculate D2E/DX2 analytically  !
 ! R45   R(35,40)                1.0904         calculate D2E/DX2 analytically  !
 ! R46   R(41,42)                1.4025         calculate D2E/DX2 analytically  !
 ! R47   R(41,43)                1.4026         calculate D2E/DX2 analytically  !
 ! R48   R(42,44)                1.3924         calculate D2E/DX2 analytically  !
 ! R49   R(42,47)                1.0913         calculate D2E/DX2 analytically  !
 ! R50   R(43,45)                1.3927         calculate D2E/DX2 analytically  !
 ! R51   R(43,48)                1.0913         calculate D2E/DX2 analytically  !
 ! R52   R(44,46)                1.3953         calculate D2E/DX2 analytically  !
 ! R53   R(44,49)                1.0907         calculate D2E/DX2 analytically  !
 ! R54   R(45,46)                1.3949         calculate D2E/DX2 analytically  !
 ! R55   R(45,50)                1.0906         calculate D2E/DX2 analytically  !
 ! R56   R(46,51)                1.0904         calculate D2E/DX2 analytically  !
 ! A1    A(2,1,5)              108.2824         calculate D2E/DX2 analytically  !
 ! A2    A(2,1,19)             125.361          calculate D2E/DX2 analytically  !
 ! A3    A(5,1,19)             125.8283         calculate D2E/DX2 analytically  !
 ! A4    A(1,2,3)              110.5571         calculate D2E/DX2 analytically  !
 ! A5    A(1,2,21)             120.3709         calculate D2E/DX2 analytically  !
 ! A6    A(3,2,21)             129.0428         calculate D2E/DX2 analytically  !
 ! A7    A(2,3,4)              105.7749         calculate D2E/DX2 analytically  !
 ! A8    A(2,3,30)             126.003          calculate D2E/DX2 analytically  !
 ! A9    A(4,3,30)             128.2185         calculate D2E/DX2 analytically  !
 ! A10   A(3,4,5)              107.4994         calculate D2E/DX2 analytically  !
 ! A11   A(3,4,22)             127.2253         calculate D2E/DX2 analytically  !
 ! A12   A(5,4,22)             125.2713         calculate D2E/DX2 analytically  !
 ! A13   A(1,5,4)              107.8792         calculate D2E/DX2 analytically  !
 ! A14   A(1,5,12)             120.8783         calculate D2E/DX2 analytically  !
 ! A15   A(4,5,12)             131.2419         calculate D2E/DX2 analytically  !
 ! A16   A(7,6,11)             120.1606         calculate D2E/DX2 analytically  !
 ! A17   A(7,6,23)             120.355          calculate D2E/DX2 analytically  !
 ! A18   A(11,6,23)            119.4669         calculate D2E/DX2 analytically  !
 ! A19   A(6,7,8)              120.1589         calculate D2E/DX2 analytically  !
 ! A20   A(6,7,24)             119.6642         calculate D2E/DX2 analytically  !
 ! A21   A(8,7,24)             120.1766         calculate D2E/DX2 analytically  !
 ! A22   A(7,8,9)              119.9347         calculate D2E/DX2 analytically  !
 ! A23   A(7,8,25)             120.0368         calculate D2E/DX2 analytically  !
 ! A24   A(9,8,25)             120.0284         calculate D2E/DX2 analytically  !
 ! A25   A(8,9,10)             120.1744         calculate D2E/DX2 analytically  !
 ! A26   A(8,9,26)             120.1734         calculate D2E/DX2 analytically  !
 ! A27   A(10,9,26)            119.6518         calculate D2E/DX2 analytically  !
 ! A28   A(9,10,11)            120.1463         calculate D2E/DX2 analytically  !
 ! A29   A(9,10,27)            120.3035         calculate D2E/DX2 analytically  !
 ! A30   A(11,10,27)           119.5282         calculate D2E/DX2 analytically  !
 ! A31   A(6,11,10)            119.4198         calculate D2E/DX2 analytically  !
 ! A32   A(6,11,12)            120.1213         calculate D2E/DX2 analytically  !
 ! A33   A(10,11,12)           120.4583         calculate D2E/DX2 analytically  !
 ! A34   A(5,12,11)            120.2606         calculate D2E/DX2 analytically  !
 ! A35   A(5,12,13)            119.9495         calculate D2E/DX2 analytically  !
 ! A36   A(11,12,13)           119.7861         calculate D2E/DX2 analytically  !
 ! A37   A(12,13,14)           130.9416         calculate D2E/DX2 analytically  !
 ! A38   A(12,13,17)           121.0121         calculate D2E/DX2 analytically  !
 ! A39   A(14,13,17)           107.8925         calculate D2E/DX2 analytically  !
 ! A40   A(13,14,15)           107.486          calculate D2E/DX2 analytically  !
 ! A41   A(13,14,28)           125.1677         calculate D2E/DX2 analytically  !
 ! A42   A(15,14,28)           127.2829         calculate D2E/DX2 analytically  !
 ! A43   A(14,15,16)           105.784          calculate D2E/DX2 analytically  !
 ! A44   A(14,15,41)           128.1327         calculate D2E/DX2 analytically  !
 ! A45   A(16,15,41)           126.0823         calculate D2E/DX2 analytically  !
 ! A46   A(15,16,17)           110.5285         calculate D2E/DX2 analytically  !
 ! A47   A(15,16,29)           129.0904         calculate D2E/DX2 analytically  !
 ! A48   A(17,16,29)           120.3774         calculate D2E/DX2 analytically  !
 ! A49   A(13,17,16)           108.3081         calculate D2E/DX2 analytically  !
 ! A50   A(13,17,19)           125.9286         calculate D2E/DX2 analytically  !
 ! A51   A(16,17,19)           125.7566         calculate D2E/DX2 analytically  !
 ! A52   A(1,19,17)            105.2646         calculate D2E/DX2 analytically  !
 ! A53   A(1,19,18)            110.5359         calculate D2E/DX2 analytically  !
 ! A54   A(1,19,20)            109.6936         calculate D2E/DX2 analytically  !
 ! A55   A(17,19,18)           110.2056         calculate D2E/DX2 analytically  !
 ! A56   A(17,19,20)           110.1632         calculate D2E/DX2 analytically  !
 ! A57   A(18,19,20)           110.8374         calculate D2E/DX2 analytically  !
 ! A58   A(3,30,31)            120.6295         calculate D2E/DX2 analytically  !
 ! A59   A(3,30,32)            120.8171         calculate D2E/DX2 analytically  !
 ! A60   A(31,30,32)           118.5534         calculate D2E/DX2 analytically  !
 ! A61   A(30,31,33)           120.7109         calculate D2E/DX2 analytically  !
 ! A62   A(30,31,36)           119.5919         calculate D2E/DX2 analytically  !
 ! A63   A(33,31,36)           119.6876         calculate D2E/DX2 analytically  !
 ! A64   A(30,32,34)           120.6968         calculate D2E/DX2 analytically  !
 ! A65   A(30,32,37)           119.7808         calculate D2E/DX2 analytically  !
 ! A66   A(34,32,37)           119.5143         calculate D2E/DX2 analytically  !
 ! A67   A(31,33,35)           120.2645         calculate D2E/DX2 analytically  !
 ! A68   A(31,33,38)           119.6412         calculate D2E/DX2 analytically  !
 ! A69   A(35,33,38)           120.0926         calculate D2E/DX2 analytically  !
 ! A70   A(32,34,35)           120.2666         calculate D2E/DX2 analytically  !
 ! A71   A(32,34,39)           119.6122         calculate D2E/DX2 analytically  !
 ! A72   A(35,34,39)           120.1198         calculate D2E/DX2 analytically  !
 ! A73   A(33,35,34)           119.5067         calculate D2E/DX2 analytically  !
 ! A74   A(33,35,40)           120.2467         calculate D2E/DX2 analytically  !
 ! A75   A(34,35,40)           120.2466         calculate D2E/DX2 analytically  !
 ! A76   A(15,41,42)           120.5707         calculate D2E/DX2 analytically  !
 ! A77   A(15,41,43)           120.8731         calculate D2E/DX2 analytically  !
 ! A78   A(42,41,43)           118.5562         calculate D2E/DX2 analytically  !
 ! A79   A(41,42,44)           120.7177         calculate D2E/DX2 analytically  !
 ! A80   A(41,42,47)           119.5494         calculate D2E/DX2 analytically  !
 ! A81   A(44,42,47)           119.7238         calculate D2E/DX2 analytically  !
 ! A82   A(41,43,45)           120.6883         calculate D2E/DX2 analytically  !
 ! A83   A(41,43,48)           119.7853         calculate D2E/DX2 analytically  !
 ! A84   A(45,43,48)           119.5174         calculate D2E/DX2 analytically  !
 ! A85   A(42,44,46)           120.2511         calculate D2E/DX2 analytically  !
 ! A86   A(42,44,49)           119.6559         calculate D2E/DX2 analytically  !
 ! A87   A(46,44,49)           120.0911         calculate D2E/DX2 analytically  !
 ! A88   A(43,45,46)           120.2701         calculate D2E/DX2 analytically  !
 ! A89   A(43,45,50)           119.6146         calculate D2E/DX2 analytically  !
 ! A90   A(46,45,50)           120.1139         calculate D2E/DX2 analytically  !
 ! A91   A(44,46,45)           119.5154         calculate D2E/DX2 analytically  !
 ! A92   A(44,46,51)           120.2435         calculate D2E/DX2 analytically  !
 ! A93   A(45,46,51)           120.2411         calculate D2E/DX2 analytically  !
 ! D1    D(5,1,2,3)             -0.1097         calculate D2E/DX2 analytically  !
 ! D2    D(5,1,2,21)          -178.3137         calculate D2E/DX2 analytically  !
 ! D3    D(19,1,2,3)           171.9358         calculate D2E/DX2 analytically  !
 ! D4    D(19,1,2,21)           -6.2682         calculate D2E/DX2 analytically  !
 ! D5    D(2,1,5,4)              0.5961         calculate D2E/DX2 analytically  !
 ! D6    D(2,1,5,12)          -179.6415         calculate D2E/DX2 analytically  !
 ! D7    D(19,1,5,4)          -171.4025         calculate D2E/DX2 analytically  !
 ! D8    D(19,1,5,12)            8.3599         calculate D2E/DX2 analytically  !
 ! D9    D(2,1,19,17)          177.0853         calculate D2E/DX2 analytically  !
 ! D10   D(2,1,19,18)           58.1025         calculate D2E/DX2 analytically  !
 ! D11   D(2,1,19,20)          -64.4134         calculate D2E/DX2 analytically  !
 ! D12   D(5,1,19,17)          -12.2417         calculate D2E/DX2 analytically  !
 ! D13   D(5,1,19,18)         -131.2245         calculate D2E/DX2 analytically  !
 ! D14   D(5,1,19,20)          106.2596         calculate D2E/DX2 analytically  !
 ! D15   D(1,2,3,4)             -0.4224         calculate D2E/DX2 analytically  !
 ! D16   D(1,2,3,30)          -179.7701         calculate D2E/DX2 analytically  !
 ! D17   D(21,2,3,4)           177.5824         calculate D2E/DX2 analytically  !
 ! D18   D(21,2,3,30)           -1.7653         calculate D2E/DX2 analytically  !
 ! D19   D(2,3,4,5)              0.77           calculate D2E/DX2 analytically  !
 ! D20   D(2,3,4,22)          -179.9349         calculate D2E/DX2 analytically  !
 ! D21   D(30,3,4,5)          -179.9016         calculate D2E/DX2 analytically  !
 ! D22   D(30,3,4,22)           -0.6065         calculate D2E/DX2 analytically  !
 ! D23   D(2,3,30,31)          157.1071         calculate D2E/DX2 analytically  !
 ! D24   D(2,3,30,32)          -22.8841         calculate D2E/DX2 analytically  !
 ! D25   D(4,3,30,31)          -22.094          calculate D2E/DX2 analytically  !
 ! D26   D(4,3,30,32)          157.9149         calculate D2E/DX2 analytically  !
 ! D27   D(3,4,5,1)             -0.8563         calculate D2E/DX2 analytically  !
 ! D28   D(3,4,5,12)           179.415          calculate D2E/DX2 analytically  !
 ! D29   D(22,4,5,1)           179.8312         calculate D2E/DX2 analytically  !
 ! D30   D(22,4,5,12)            0.1025         calculate D2E/DX2 analytically  !
 ! D31   D(1,5,12,11)          178.9977         calculate D2E/DX2 analytically  !
 ! D32   D(1,5,12,13)           -0.2915         calculate D2E/DX2 analytically  !
 ! D33   D(4,5,12,11)           -1.3031         calculate D2E/DX2 analytically  !
 ! D34   D(4,5,12,13)          179.4076         calculate D2E/DX2 analytically  !
 ! D35   D(11,6,7,8)            -0.7124         calculate D2E/DX2 analytically  !
 ! D36   D(11,6,7,24)          179.1422         calculate D2E/DX2 analytically  !
 ! D37   D(23,6,7,8)          -179.1832         calculate D2E/DX2 analytically  !
 ! D38   D(23,6,7,24)            0.6714         calculate D2E/DX2 analytically  !
 ! D39   D(7,6,11,10)            0.4706         calculate D2E/DX2 analytically  !
 ! D40   D(7,6,11,12)         -179.8104         calculate D2E/DX2 analytically  !
 ! D41   D(23,6,11,10)         178.955          calculate D2E/DX2 analytically  !
 ! D42   D(23,6,11,12)          -1.3261         calculate D2E/DX2 analytically  !
 ! D43   D(6,7,8,9)              0.2837         calculate D2E/DX2 analytically  !
 ! D44   D(6,7,8,25)          -179.6488         calculate D2E/DX2 analytically  !
 ! D45   D(24,7,8,9)          -179.5702         calculate D2E/DX2 analytically  !
 ! D46   D(24,7,8,25)            0.4973         calculate D2E/DX2 analytically  !
 ! D47   D(7,8,9,10)             0.3865         calculate D2E/DX2 analytically  !
 ! D48   D(7,8,9,26)          -179.3789         calculate D2E/DX2 analytically  !
 ! D49   D(25,8,9,10)         -179.681          calculate D2E/DX2 analytically  !
 ! D50   D(25,8,9,26)            0.5535         calculate D2E/DX2 analytically  !
 ! D51   D(8,9,10,11)           -0.6263         calculate D2E/DX2 analytically  !
 ! D52   D(8,9,10,27)         -178.9137         calculate D2E/DX2 analytically  !
 ! D53   D(26,9,10,11)         179.1404         calculate D2E/DX2 analytically  !
 ! D54   D(26,9,10,27)           0.853          calculate D2E/DX2 analytically  !
 ! D55   D(9,10,11,6)            0.1977         calculate D2E/DX2 analytically  !
 ! D56   D(9,10,11,12)        -179.5203         calculate D2E/DX2 analytically  !
 ! D57   D(27,10,11,6)         178.4984         calculate D2E/DX2 analytically  !
 ! D58   D(27,10,11,12)         -1.2196         calculate D2E/DX2 analytically  !
 ! D59   D(6,11,12,5)          127.783          calculate D2E/DX2 analytically  !
 ! D60   D(6,11,12,13)         -52.9266         calculate D2E/DX2 analytically  !
 ! D61   D(10,11,12,5)         -52.501          calculate D2E/DX2 analytically  !
 ! D62   D(10,11,12,13)        126.7894         calculate D2E/DX2 analytically  !
 ! D63   D(5,12,13,14)         173.4905         calculate D2E/DX2 analytically  !
 ! D64   D(5,12,13,17)          -1.4198         calculate D2E/DX2 analytically  !
 ! D65   D(11,12,13,14)         -5.8021         calculate D2E/DX2 analytically  !
 ! D66   D(11,12,13,17)        179.2875         calculate D2E/DX2 analytically  !
 ! D67   D(12,13,14,15)       -175.701          calculate D2E/DX2 analytically  !
 ! D68   D(12,13,14,28)          1.5771         calculate D2E/DX2 analytically  !
 ! D69   D(17,13,14,15)         -0.2837         calculate D2E/DX2 analytically  !
 ! D70   D(17,13,14,28)        176.9944         calculate D2E/DX2 analytically  !
 ! D71   D(12,13,17,16)        176.0999         calculate D2E/DX2 analytically  !
 ! D72   D(12,13,17,19)         -4.8001         calculate D2E/DX2 analytically  !
 ! D73   D(14,13,17,16)          0.138          calculate D2E/DX2 analytically  !
 ! D74   D(14,13,17,19)        179.238          calculate D2E/DX2 analytically  !
 ! D75   D(13,14,15,16)          0.3103         calculate D2E/DX2 analytically  !
 ! D76   D(13,14,15,41)        179.9539         calculate D2E/DX2 analytically  !
 ! D77   D(28,14,15,16)       -176.8931         calculate D2E/DX2 analytically  !
 ! D78   D(28,14,15,41)          2.7505         calculate D2E/DX2 analytically  !
 ! D79   D(14,15,16,17)         -0.2352         calculate D2E/DX2 analytically  !
 ! D80   D(14,15,16,29)       -179.5235         calculate D2E/DX2 analytically  !
 ! D81   D(41,15,16,17)       -179.8884         calculate D2E/DX2 analytically  !
 ! D82   D(41,15,16,29)          0.8234         calculate D2E/DX2 analytically  !
 ! D83   D(14,15,41,42)         23.1937         calculate D2E/DX2 analytically  !
 ! D84   D(14,15,41,43)       -156.7248         calculate D2E/DX2 analytically  !
 ! D85   D(16,15,41,42)       -157.2306         calculate D2E/DX2 analytically  !
 ! D86   D(16,15,41,43)         22.8509         calculate D2E/DX2 analytically  !
 ! D87   D(15,16,17,13)          0.0603         calculate D2E/DX2 analytically  !
 ! D88   D(15,16,17,19)       -179.0417         calculate D2E/DX2 analytically  !
 ! D89   D(29,16,17,13)        179.4199         calculate D2E/DX2 analytically  !
 ! D90   D(29,16,17,19)          0.318          calculate D2E/DX2 analytically  !
 ! D91   D(13,17,19,1)          10.466          calculate D2E/DX2 analytically  !
 ! D92   D(13,17,19,18)        129.6692         calculate D2E/DX2 analytically  !
 ! D93   D(13,17,19,20)       -107.7197         calculate D2E/DX2 analytically  !
 ! D94   D(16,17,19,1)        -170.587          calculate D2E/DX2 analytically  !
 ! D95   D(16,17,19,18)        -51.3838         calculate D2E/DX2 analytically  !
 ! D96   D(16,17,19,20)         71.2274         calculate D2E/DX2 analytically  !
 ! D97   D(3,30,31,33)         179.8858         calculate D2E/DX2 analytically  !
 ! D98   D(3,30,31,36)          -1.2425         calculate D2E/DX2 analytically  !
 ! D99   D(32,30,31,33)         -0.1228         calculate D2E/DX2 analytically  !
 ! D100  D(32,30,31,36)        178.7489         calculate D2E/DX2 analytically  !
 ! D101  D(3,30,32,34)         179.8115         calculate D2E/DX2 analytically  !
 ! D102  D(3,30,32,37)          -1.2298         calculate D2E/DX2 analytically  !
 ! D103  D(31,30,32,34)         -0.1799         calculate D2E/DX2 analytically  !
 ! D104  D(31,30,32,37)        178.7789         calculate D2E/DX2 analytically  !
 ! D105  D(30,31,33,35)          0.2883         calculate D2E/DX2 analytically  !
 ! D106  D(30,31,33,38)        179.8003         calculate D2E/DX2 analytically  !
 ! D107  D(36,31,33,35)       -178.5824         calculate D2E/DX2 analytically  !
 ! D108  D(36,31,33,38)          0.9296         calculate D2E/DX2 analytically  !
 ! D109  D(30,32,34,35)          0.3189         calculate D2E/DX2 analytically  !
 ! D110  D(30,32,34,39)        179.8983         calculate D2E/DX2 analytically  !
 ! D111  D(37,32,34,35)       -178.6426         calculate D2E/DX2 analytically  !
 ! D112  D(37,32,34,39)          0.9368         calculate D2E/DX2 analytically  !
 ! D113  D(31,33,35,34)         -0.1492         calculate D2E/DX2 analytically  !
 ! D114  D(31,33,35,40)        179.7982         calculate D2E/DX2 analytically  !
 ! D115  D(38,33,35,34)       -179.6589         calculate D2E/DX2 analytically  !
 ! D116  D(38,33,35,40)          0.2884         calculate D2E/DX2 analytically  !
 ! D117  D(32,34,35,33)         -0.1523         calculate D2E/DX2 analytically  !
 ! D118  D(32,34,35,40)        179.9004         calculate D2E/DX2 analytically  !
 ! D119  D(39,34,35,33)       -179.7295         calculate D2E/DX2 analytically  !
 ! D120  D(39,34,35,40)          0.3231         calculate D2E/DX2 analytically  !
 ! D121  D(15,41,42,44)       -179.7208         calculate D2E/DX2 analytically  !
 ! D122  D(15,41,42,47)          1.3761         calculate D2E/DX2 analytically  !
 ! D123  D(43,41,42,44)          0.1995         calculate D2E/DX2 analytically  !
 ! D124  D(43,41,42,47)       -178.7035         calculate D2E/DX2 analytically  !
 ! D125  D(15,41,43,45)       -179.9624         calculate D2E/DX2 analytically  !
 ! D126  D(15,41,43,48)          1.1335         calculate D2E/DX2 analytically  !
 ! D127  D(42,41,43,45)          0.1175         calculate D2E/DX2 analytically  !
 ! D128  D(42,41,43,48)       -178.7866         calculate D2E/DX2 analytically  !
 ! D129  D(41,42,44,46)         -0.342          calculate D2E/DX2 analytically  !
 ! D130  D(41,42,44,49)       -179.8389         calculate D2E/DX2 analytically  !
 ! D131  D(47,42,44,46)        178.5591         calculate D2E/DX2 analytically  !
 ! D132  D(47,42,44,49)         -0.9377         calculate D2E/DX2 analytically  !
 ! D133  D(41,43,45,46)         -0.2938         calculate D2E/DX2 analytically  !
 ! D134  D(41,43,45,50)       -179.8726         calculate D2E/DX2 analytically  !
 ! D135  D(48,43,45,46)        178.6132         calculate D2E/DX2 analytically  !
 ! D136  D(48,43,45,50)         -0.9656         calculate D2E/DX2 analytically  !
 ! D137  D(42,44,46,45)          0.164          calculate D2E/DX2 analytically  !
 ! D138  D(42,44,46,51)       -179.7833         calculate D2E/DX2 analytically  !
 ! D139  D(49,44,46,45)        179.6587         calculate D2E/DX2 analytically  !
 ! D140  D(49,44,46,51)         -0.2887         calculate D2E/DX2 analytically  !
 ! D141  D(43,45,46,44)          0.1517         calculate D2E/DX2 analytically  !
 ! D142  D(43,45,46,51)       -179.901          calculate D2E/DX2 analytically  !
 ! D143  D(50,45,46,44)        179.7283         calculate D2E/DX2 analytically  !
 ! D144  D(50,45,46,51)         -0.3243         calculate D2E/DX2 analytically  !
 --------------------------------------------------------------------------------
 Trust Radius=3.00D-01 FncErr=5.00D-06 GrdErr=5.00D-06 EigMax=2.50D+02 EigMin=1.00D-04
 Number of steps in this run=    303 maximum allowed number of steps=    306.
 GradGradGradGradGradGradGradGradGradGradGradGradGradGradGradGradGradGrad

 Leave Link  103 at Tue Feb  1 06:36:12 2022, MaxMem= 11408506880 cpu:               0.4 elap:               0.0
 (Enter /lustre1/prg/gaussian/bin/G16_C01_Linda9.2_SSE4/g16/l202.exe)
 Symmetry turned off by external request.
 Stoichiometry    C27H19BF2N2
 Framework group  C1[X(C27H19BF2N2)]
 Deg. of freedom   147
 Full point group                 C1      NOp   1
                          Input orientation:                          
 ---------------------------------------------------------------------
 Center     Atomic      Atomic             Coordinates (Angstroms)
 Number     Number       Type             X           Y           Z
 ---------------------------------------------------------------------
      1          7           0       12.395811   -9.430470   -1.150557
      2          6           0       13.168782   -9.796283   -2.172500
      3          6           0       14.055571   -8.747484   -2.526599
      4          6           0       13.769149   -7.697992   -1.654043
      5          6           0       12.738539   -8.134384   -0.787097
      6          6           0       11.505250   -5.110809    0.774831
      7          6           0       11.873039   -3.817651    1.137842
      8          6           0       13.208484   -3.518786    1.408904
      9          6           0       14.178961   -4.516210    1.310414
     10          6           0       13.819421   -5.807974    0.934324
     11          6           0       12.477765   -6.115595    0.665446
     12          6           0       12.086797   -7.487544    0.275819
     13          6           0       11.069602   -8.150425    0.982211
     14          6           0       10.354497   -7.778637    2.146142
     15          6           0        9.521158   -8.844419    2.484251
     16          6           0        9.761846   -9.846635    1.509702
     17          7           0       10.672263   -9.432927    0.628926
     18          9           0       11.588215  -11.510670   -0.203172
     19          5           0       11.184504  -10.242864   -0.599361
     20          9           0       10.191729  -10.320660   -1.570082
     21          1           0       13.045490  -10.774465   -2.632987
     22          1           0       14.245705   -6.722279   -1.620790
     23          1           0       10.463965   -5.345001    0.549261
     24          1           0       11.112409   -3.039591    1.206786
     25          1           0       13.493434   -2.506847    1.698555
     26          1           0       15.222259   -4.289380    1.531182
     27          1           0       14.573676   -6.593647    0.873777
     28          1           0       10.483693   -6.846251    2.688930
     29          1           0        9.308246  -10.830733    1.411087
     30          6           0       15.051465   -8.785296   -3.609142
     31          6           0       15.528135   -7.597821   -4.183362
     32          6           0       15.544581  -10.007298   -4.089467
     33          6           0       16.472185   -7.631546   -5.206120
     34          6           0       16.484336  -10.040295   -5.116939
     35          6           0       16.953621   -8.853044   -5.678849
     36          1           0       15.140855   -6.638307   -3.836766
     37          1           0       15.202442  -10.942714   -3.643597
     38          1           0       16.828422   -6.697575   -5.642372
     39          1           0       16.857069  -11.000412   -5.475728
     40          1           0       17.690538   -8.879213   -6.482109
     41          6           0        8.583865   -8.941845    3.614265
     42          6           0        8.072495   -7.784206    4.218701
     43          6           0        8.183517  -10.190659    4.111655
     44          6           0        7.189865   -7.872789    5.291913
     45          6           0        7.295493  -10.278404    5.180985
     46          6           0        6.795919   -9.120380    5.776941
     47          1           0        8.356477   -6.804399    3.831154
     48          1           0        8.584389  -11.104169    3.669337
     49          1           0        6.800731   -6.961319    5.747235
     50          1           0        6.997561  -11.258554    5.555075
     51          1           0        6.101955   -9.189622    6.615141
 ---------------------------------------------------------------------
 Rotational constants (GHZ):           0.2450844           0.0709351           0.0567567
 Leave Link  202 at Tue Feb  1 06:36:12 2022, MaxMem= 11408506880 cpu:               0.1 elap:               0.0
 (Enter /lustre1/prg/gaussian/bin/G16_C01_Linda9.2_SSE4/g16/l301.exe)
 Standard basis: CC-pVDZ (5D, 7F)
 Ernie: Thresh=  0.10000D-02 Tol=  0.10000D-05 Strict=F.
 Ernie:  64 primitive shells out of 799 were deleted.
   543 basis functions,  1189 primitive gaussians,   575 cartesian basis functions
   109 alpha electrons      109 beta electrons
       nuclear repulsion energy      2847.9515245973 Hartrees.
 IExCor= 4336 DFT=T Ex+Corr=M062X ExCW=0 ScaHFX=  0.540000
 ScaDFX=  1.000000  1.000000  1.000000  1.000000 ScalE2=  1.000000  1.000000
 IRadAn=      5 IRanWt=     -1 IRanGd=            0 ICorTp=0 IEmpDi=  4
 NAtoms=   51 NActive=   51 NUniq=   51 SFac= 1.00D+00 NAtFMM=   60 NAOKFM=F Big=F
 Integral buffers will be    131072 words long.
 Raffenetti 2 integral format.
 Two-electron integral symmetry is turned off.
 Force inversion solution in PCM.
 ------------------------------------------------------------------------------
 Polarizable Continuum Model (PCM)
 =================================
 Model                : C-PCM.
 Atomic radii         : UFF (Universal Force Field).
 Polarization charges : Total charges.
 Charge compensation  : None.
 Solution method      : Matrix inversion.
 Cavity type          : Scaled VdW (van der Waals Surface) (Alpha=1.100).
 Cavity algorithm     : GePol (No added spheres)
                        Default sphere list used, NSphG=   51.
                        Lebedev-Laikov grids with approx.  5.0 points / Ang**2.
                        Smoothing algorithm: York/Karplus (Gamma=1.0000).
                        Polarization charges: spherical gaussians, with
                                              point-specific exponents (IZeta= 3).
                        Self-potential: point-specific (ISelfS= 7).
                        Self-field    : sphere-specific E.n sum rule (ISelfD= 2).
 1st derivatives      : Analytical E(r).r(x)/FMM algorithm (CHGder, D1EAlg=3).
                        Cavity 1st derivative terms included.
 2nd derivatives      : Analytical E(r).r(xy)/FMM algorithm (CHGder, D2EAlg=3).
                        Cavity 2nd derivative terms included.
 Solvent              : Methanol, Eps=  32.613000 Eps(inf)=   1.765709
 ------------------------------------------------------------------------------
 GePol: Number of generator spheres                  =      51
 GePol: Total number of spheres                      =      51
 GePol: Number of exposed spheres                    =      51 (100.00%)
 GePol: Number of points                             =    3807
 GePol: Average weight of points                     =       0.13
 GePol: Minimum weight of points                     =   0.16D-11
 GePol: Maximum weight of points                     =    0.20577
 GePol: Number of points with low weight             =     260
 GePol: Fraction of low-weight points (<1% of avg)   =       6.83%
 GePol: Cavity surface area                          =    493.787 Ang**2
 GePol: Cavity volume                                =    555.252 Ang**3
 Leave Link  301 at Tue Feb  1 06:36:12 2022, MaxMem= 11408506880 cpu:               1.3 elap:               0.1
@@@@@@@@@@@@@@@@@@@@@@@@@@@@@@@@@@@@@@@@@@@@@@@@@@@@@@@@@@@
@    WARNING: REMOTE HOST IDENTIFICATION HAS CHANGED!     @
@@@@@@@@@@@@@@@@@@@@@@@@@@@@@@@@@@@@@@@@@@@@@@@@@@@@@@@@@@@
IT IS POSSIBLE THAT SOMEONE IS DOING SOMETHING NASTY!
Someone could be eavesdropping on you right now (man-in-the-middle attack)!
It is also possible that a host key has just been changed.
The fingerprint for the ECDSA key sent by the remote host is
SHA256:2L8+rWmtOly5Dne65cLommFQX0Z6/FNW4pmamQkH48o.
Please contact your system administrator.
Add correct host key in /lustre2/home/toliste/.ssh/known_hosts to get rid of this message.
Offending ECDSA key in /lustre2/home/toliste/.ssh/known_hosts:4
Password authentication is disabled to avoid man-in-the-middle attacks.
Keyboard-interactive authentication is disabled to avoid man-in-the-middle attacks.
@@@@@@@@@@@@@@@@@@@@@@@@@@@@@@@@@@@@@@@@@@@@@@@@@@@@@@@@@@@
@    WARNING: REMOTE HOST IDENTIFICATION HAS CHANGED!     @
@@@@@@@@@@@@@@@@@@@@@@@@@@@@@@@@@@@@@@@@@@@@@@@@@@@@@@@@@@@
IT IS POSSIBLE THAT SOMEONE IS DOING SOMETHING NASTY!
Someone could be eavesdropping on you right now (man-in-the-middle attack)!
It is also possible that a host key has just been changed.
The fingerprint for the ECDSA key sent by the remote host is
SHA256:JMBYVXRfK2n6y2yXsPI58zcerXQch0mAkBCLx2EQCjA.
Please contact your system administrator.
Add correct host key in /lustre2/home/toliste/.ssh/known_hosts to get rid of this message.
Offending ECDSA key in /lustre2/home/toliste/.ssh/known_hosts:1
Password authentication is disabled to avoid man-in-the-middle attacks.
Keyboard-interactive authentication is disabled to avoid man-in-the-middle attacks.
@@@@@@@@@@@@@@@@@@@@@@@@@@@@@@@@@@@@@@@@@@@@@@@@@@@@@@@@@@@
@    WARNING: REMOTE HOST IDENTIFICATION HAS CHANGED!     @
@@@@@@@@@@@@@@@@@@@@@@@@@@@@@@@@@@@@@@@@@@@@@@@@@@@@@@@@@@@
IT IS POSSIBLE THAT SOMEONE IS DOING SOMETHING NASTY!
Someone could be eavesdropping on you right now (man-in-the-middle attack)!
It is also possible that a host key has just been changed.
The fingerprint for the ECDSA key sent by the remote host is
SHA256:dgDupA/+cRkOk5AqlXAu83ghyZ+M9W1MPorM/60QNoc.
Please contact your system administrator.
Add correct host key in /lustre2/home/toliste/.ssh/known_hosts to get rid of this message.
Offending ECDSA key in /lustre2/home/toliste/.ssh/known_hosts:192
Password authentication is disabled to avoid man-in-the-middle attacks.
Keyboard-interactive authentication is disabled to avoid man-in-the-middle attacks.
@@@@@@@@@@@@@@@@@@@@@@@@@@@@@@@@@@@@@@@@@@@@@@@@@@@@@@@@@@@
@    WARNING: REMOTE HOST IDENTIFICATION HAS CHANGED!     @
@@@@@@@@@@@@@@@@@@@@@@@@@@@@@@@@@@@@@@@@@@@@@@@@@@@@@@@@@@@
IT IS POSSIBLE THAT SOMEONE IS DOING SOMETHING NASTY!
Someone could be eavesdropping on you right now (man-in-the-middle attack)!
It is also possible that a host key has just been changed.
The fingerprint for the ECDSA key sent by the remote host is
SHA256:uDTyhacB/CVeW2vcMi8+W3dxfcXuwxtvyrCo/SGTo30.
Please contact your system administrator.
Add correct host key in /lustre2/home/toliste/.ssh/known_hosts to get rid of this message.
Offending ECDSA key in /lustre2/home/toliste/.ssh/known_hosts:2
Password authentication is disabled to avoid man-in-the-middle attacks.
Keyboard-interactive authentication is disabled to avoid man-in-the-middle attacks.
@@@@@@@@@@@@@@@@@@@@@@@@@@@@@@@@@@@@@@@@@@@@@@@@@@@@@@@@@@@
@    WARNING: REMOTE HOST IDENTIFICATION HAS CHANGED!     @
@@@@@@@@@@@@@@@@@@@@@@@@@@@@@@@@@@@@@@@@@@@@@@@@@@@@@@@@@@@
IT IS POSSIBLE THAT SOMEONE IS DOING SOMETHING NASTY!
Someone could be eavesdropping on you right now (man-in-the-middle attack)!
It is also possible that a host key has just been changed.
The fingerprint for the ECDSA key sent by the remote host is
SHA256:o8EorsFJYrst8GGL5kkfWBd1g9VHd2QDvyGiBqJHMPw.
Please contact your system administrator.
Add correct host key in /lustre2/home/toliste/.ssh/known_hosts to get rid of this message.
Offending ECDSA key in /lustre2/home/toliste/.ssh/known_hosts:190
Password authentication is disabled to avoid man-in-the-middle attacks.
Keyboard-interactive authentication is disabled to avoid man-in-the-middle attacks.
@@@@@@@@@@@@@@@@@@@@@@@@@@@@@@@@@@@@@@@@@@@@@@@@@@@@@@@@@@@
@    WARNING: REMOTE HOST IDENTIFICATION HAS CHANGED!     @
@@@@@@@@@@@@@@@@@@@@@@@@@@@@@@@@@@@@@@@@@@@@@@@@@@@@@@@@@@@
IT IS POSSIBLE THAT SOMEONE IS DOING SOMETHING NASTY!
Someone could be eavesdropping on you right now (man-in-the-middle attack)!
It is also possible that a host key has just been changed.
The fingerprint for the ECDSA key sent by the remote host is
SHA256:kawKeDCaQe3uT69RUPVXoEKT7IFr2es2tQryEUjuZpQ.
Please contact your system administrator.
Add correct host key in /lustre2/home/toliste/.ssh/known_hosts to get rid of this message.
Offending ECDSA key in /lustre2/home/toliste/.ssh/known_hosts:3
Password authentication is disabled to avoid man-in-the-middle attacks.
Keyboard-interactive authentication is disabled to avoid man-in-the-middle attacks.
@@@@@@@@@@@@@@@@@@@@@@@@@@@@@@@@@@@@@@@@@@@@@@@@@@@@@@@@@@@
@    WARNING: REMOTE HOST IDENTIFICATION HAS CHANGED!     @
@@@@@@@@@@@@@@@@@@@@@@@@@@@@@@@@@@@@@@@@@@@@@@@@@@@@@@@@@@@
IT IS POSSIBLE THAT SOMEONE IS DOING SOMETHING NASTY!
Someone could be eavesdropping on you right now (man-in-the-middle attack)!
It is also possible that a host key has just been changed.
The fingerprint for the ECDSA key sent by the remote host is
SHA256:pUAANVT+QIHMG3gDTB6Nfy5J4iYg5JWrtVNbA9fVJEg.
Please contact your system administrator.
Add correct host key in /lustre2/home/toliste/.ssh/known_hosts to get rid of this message.
Offending ECDSA key in /lustre2/home/toliste/.ssh/known_hosts:5
Password authentication is disabled to avoid man-in-the-middle attacks.
Keyboard-interactive authentication is disabled to avoid man-in-the-middle attacks.
 (Enter /lustre1/prg/gaussian/bin/G16_C01_Linda9.2_SSE4/g16/linda-exe/l302.exel)
 NPDir=0 NMtPBC=     1 NCelOv=     1 NCel=       1 NClECP=     1 NCelD=      1
         NCelK=      1 NCelE2=     1 NClLst=     1 CellRange=     0.0.
 One-electron integrals computed using PRISM.
 NBasis=   543 RedAO= T EigKep=  2.18D-04  NBF=   543
 NBsUse=   543 1.00D-06 EigRej= -1.00D+00 NBFU=   543
 Precomputing XC quadrature grid using
 IXCGrd= 4 IRadAn=           5 IRanWt=          -1 IRanGd=           0 AccXCQ= 0.00D+00.
 Generated NRdTot=       0 NPtTot=           0 NUsed=           0 NTot=          32
 NSgBfM=   557   557   557   557   557 MxSgAt=    51 MxSgA2=    51.
 Leave Link  302 at Tue Feb  1 06:36:18 2022, MaxMem= 11408506880 cpu:              34.0 elap:               3.0
 (Enter /lustre1/prg/gaussian/bin/G16_C01_Linda9.2_SSE4/g16/l303.exe)
 DipDrv:  MaxL=1.
 Leave Link  303 at Tue Feb  1 06:36:18 2022, MaxMem= 11408506880 cpu:               2.5 elap:               0.4
@@@@@@@@@@@@@@@@@@@@@@@@@@@@@@@@@@@@@@@@@@@@@@@@@@@@@@@@@@@
@    WARNING: REMOTE HOST IDENTIFICATION HAS CHANGED!     @
@@@@@@@@@@@@@@@@@@@@@@@@@@@@@@@@@@@@@@@@@@@@@@@@@@@@@@@@@@@
IT IS POSSIBLE THAT SOMEONE IS DOING SOMETHING NASTY!
Someone could be eavesdropping on you right now (man-in-the-middle attack)!
It is also possible that a host key has just been changed.
The fingerprint for the ECDSA key sent by the remote host is
SHA256:2L8+rWmtOly5Dne65cLommFQX0Z6/FNW4pmamQkH48o.
Please contact your system administrator.
Add correct host key in /lustre2/home/toliste/.ssh/known_hosts to get rid of this message.
Offending ECDSA key in /lustre2/home/toliste/.ssh/known_hosts:4
Password authentication is disabled to avoid man-in-the-middle attacks.
Keyboard-interactive authentication is disabled to avoid man-in-the-middle attacks.
@@@@@@@@@@@@@@@@@@@@@@@@@@@@@@@@@@@@@@@@@@@@@@@@@@@@@@@@@@@
@@@@@@@@@@@@@@@@@@@@@@@@@@@@@@@@@@@@@@@@@@@@@@@@@@@@@@@@@@@
@    WARNING: REMOTE HOST IDENTIFICATION HAS CHANGED!     @
@    WARNING: REMOTE HOST IDENTIFICATION HAS CHANGED!     @
@@@@@@@@@@@@@@@@@@@@@@@@@@@@@@@@@@@@@@@@@@@@@@@@@@@@@@@@@@@
@@@@@@@@@@@@@@@@@@@@@@@@@@@@@@@@@@@@@@@@@@@@@@@@@@@@@@@@@@@
IT IS POSSIBLE THAT SOMEONE IS DOING SOMETHING NASTY!
IT IS POSSIBLE THAT SOMEONE IS DOING SOMETHING NASTY!
Someone could be eavesdropping on you right now (man-in-the-middle attack)!
Someone could be eavesdropping on you right now (man-in-the-middle attack)!
It is also possible that a host key has just been changed.
It is also possible that a host key has just been changed.
The fingerprint for the ECDSA key sent by the remote host is
SHA256:JMBYVXRfK2n6y2yXsPI58zcerXQch0mAkBCLx2EQCjA.
The fingerprint for the ECDSA key sent by the remote host is
SHA256:dgDupA/+cRkOk5AqlXAu83ghyZ+M9W1MPorM/60QNoc.
Please contact your system administrator.
Please contact your system administrator.
Add correct host key in /lustre2/home/toliste/.ssh/known_hosts to get rid of this message.
Add correct host key in /lustre2/home/toliste/.ssh/known_hosts to get rid of this message.
Offending ECDSA key in /lustre2/home/toliste/.ssh/known_hosts:1
Offending ECDSA key in /lustre2/home/toliste/.ssh/known_hosts:192
Password authentication is disabled to avoid man-in-the-middle attacks.
Password authentication is disabled to avoid man-in-the-middle attacks.
Keyboard-interactive authentication is disabled to avoid man-in-the-middle attacks.
Keyboard-interactive authentication is disabled to avoid man-in-the-middle attacks.
@@@@@@@@@@@@@@@@@@@@@@@@@@@@@@@@@@@@@@@@@@@@@@@@@@@@@@@@@@@
@    WARNING: REMOTE HOST IDENTIFICATION HAS CHANGED!     @
@@@@@@@@@@@@@@@@@@@@@@@@@@@@@@@@@@@@@@@@@@@@@@@@@@@@@@@@@@@
IT IS POSSIBLE THAT SOMEONE IS DOING SOMETHING NASTY!
Someone could be eavesdropping on you right now (man-in-the-middle attack)!
It is also possible that a host key has just been changed.
The fingerprint for the ECDSA key sent by the remote host is
SHA256:kawKeDCaQe3uT69RUPVXoEKT7IFr2es2tQryEUjuZpQ.
Please contact your system administrator.
Add correct host key in /lustre2/home/toliste/.ssh/known_hosts to get rid of this message.
Offending ECDSA key in /lustre2/home/toliste/.ssh/known_hosts:3
Password authentication is disabled to avoid man-in-the-middle attacks.
Keyboard-interactive authentication is disabled to avoid man-in-the-middle attacks.
@@@@@@@@@@@@@@@@@@@@@@@@@@@@@@@@@@@@@@@@@@@@@@@@@@@@@@@@@@@
@    WARNING: REMOTE HOST IDENTIFICATION HAS CHANGED!     @
@@@@@@@@@@@@@@@@@@@@@@@@@@@@@@@@@@@@@@@@@@@@@@@@@@@@@@@@@@@
IT IS POSSIBLE THAT SOMEONE IS DOING SOMETHING NASTY!
Someone could be eavesdropping on you right now (man-in-the-middle attack)!
It is also possible that a host key has just been changed.
The fingerprint for the ECDSA key sent by the remote host is
SHA256:pUAANVT+QIHMG3gDTB6Nfy5J4iYg5JWrtVNbA9fVJEg.
Please contact your system administrator.
Add correct host key in /lustre2/home/toliste/.ssh/known_hosts to get rid of this message.
Offending ECDSA key in /lustre2/home/toliste/.ssh/known_hosts:5
Password authentication is disabled to avoid man-in-the-middle attacks.
Keyboard-interactive authentication is disabled to avoid man-in-the-middle attacks.
@@@@@@@@@@@@@@@@@@@@@@@@@@@@@@@@@@@@@@@@@@@@@@@@@@@@@@@@@@@
@    WARNING: REMOTE HOST IDENTIFICATION HAS CHANGED!     @
@@@@@@@@@@@@@@@@@@@@@@@@@@@@@@@@@@@@@@@@@@@@@@@@@@@@@@@@@@@
IT IS POSSIBLE THAT SOMEONE IS DOING SOMETHING NASTY!
Someone could be eavesdropping on you right now (man-in-the-middle attack)!
It is also possible that a host key has just been changed.
The fingerprint for the ECDSA key sent by the remote host is
SHA256:o8EorsFJYrst8GGL5kkfWBd1g9VHd2QDvyGiBqJHMPw.
Please contact your system administrator.
Add correct host key in /lustre2/home/toliste/.ssh/known_hosts to get rid of this message.
Offending ECDSA key in /lustre2/home/toliste/.ssh/known_hosts:190
Password authentication is disabled to avoid man-in-the-middle attacks.
Keyboard-interactive authentication is disabled to avoid man-in-the-middle attacks.
@@@@@@@@@@@@@@@@@@@@@@@@@@@@@@@@@@@@@@@@@@@@@@@@@@@@@@@@@@@
@    WARNING: REMOTE HOST IDENTIFICATION HAS CHANGED!     @
@@@@@@@@@@@@@@@@@@@@@@@@@@@@@@@@@@@@@@@@@@@@@@@@@@@@@@@@@@@
IT IS POSSIBLE THAT SOMEONE IS DOING SOMETHING NASTY!
Someone could be eavesdropping on you right now (man-in-the-middle attack)!
It is also possible that a host key has just been changed.
The fingerprint for the ECDSA key sent by the remote host is
SHA256:uDTyhacB/CVeW2vcMi8+W3dxfcXuwxtvyrCo/SGTo30.
Please contact your system administrator.
Add correct host key in /lustre2/home/toliste/.ssh/known_hosts to get rid of this message.
Offending ECDSA key in /lustre2/home/toliste/.ssh/known_hosts:2
Password authentication is disabled to avoid man-in-the-middle attacks.
Keyboard-interactive authentication is disabled to avoid man-in-the-middle attacks.
 (Enter /lustre1/prg/gaussian/bin/G16_C01_Linda9.2_SSE4/g16/linda-exe/l401.exel)
 ExpMin= 9.54D-02 ExpMax= 1.47D+04 ExpMxC= 5.03D+02 IAcc=3 IRadAn=         5 AccDes= 0.00D+00
 Harris functional with IExCor= 1009 and IRadAn=       5 diagonalized for initial guess.
 HarFok:  IExCor= 1009 AccDes= 0.00D+00 IRadAn=         5 IDoV= 1 UseB2=F ITyADJ=14
 ICtDFT=  3500011 ScaDFX=  1.000000  1.000000  1.000000  1.000000
 FoFCou: FMM=F IPFlag=           0 FMFlag=      100000 FMFlg1=           0
         NFxFlg=           0 DoJE=T BraDBF=F KetDBF=T FulRan=T
         wScrn=  0.000000 ICntrl=       500 IOpCl=  0 I1Cent=   200000004 NGrid=           0
         NMat0=    1 NMatS0=      1 NMatT0=    0 NMatD0=    1 NMtDS0=    0 NMtDT0=    0
 Symmetry not used in FoFCou.
 Harris En= -1373.29529033894    
 JPrj=0 DoOrth=F DoCkMO=F.
 Leave Link  401 at Tue Feb  1 06:36:27 2022, MaxMem= 11408506880 cpu:              74.1 elap:               6.5
@@@@@@@@@@@@@@@@@@@@@@@@@@@@@@@@@@@@@@@@@@@@@@@@@@@@@@@@@@@
@    WARNING: REMOTE HOST IDENTIFICATION HAS CHANGED!     @
@@@@@@@@@@@@@@@@@@@@@@@@@@@@@@@@@@@@@@@@@@@@@@@@@@@@@@@@@@@
IT IS POSSIBLE THAT SOMEONE IS DOING SOMETHING NASTY!
Someone could be eavesdropping on you right now (man-in-the-middle attack)!
It is also possible that a host key has just been changed.
The fingerprint for the ECDSA key sent by the remote host is
SHA256:JMBYVXRfK2n6y2yXsPI58zcerXQch0mAkBCLx2EQCjA.
Please contact your system administrator.
Add correct host key in /lustre2/home/toliste/.ssh/known_hosts to get rid of this message.
Offending ECDSA key in /lustre2/home/toliste/.ssh/known_hosts:1
Password authentication is disabled to avoid man-in-the-middle attacks.
Keyboard-interactive authentication is disabled to avoid man-in-the-middle attacks.
@@@@@@@@@@@@@@@@@@@@@@@@@@@@@@@@@@@@@@@@@@@@@@@@@@@@@@@@@@@
@    WARNING: REMOTE HOST IDENTIFICATION HAS CHANGED!     @
@@@@@@@@@@@@@@@@@@@@@@@@@@@@@@@@@@@@@@@@@@@@@@@@@@@@@@@@@@@
IT IS POSSIBLE THAT SOMEONE IS DOING SOMETHING NASTY!
Someone could be eavesdropping on you right now (man-in-the-middle attack)!
It is also possible that a host key has just been changed.
The fingerprint for the ECDSA key sent by the remote host is
SHA256:kawKeDCaQe3uT69RUPVXoEKT7IFr2es2tQryEUjuZpQ.
Please contact your system administrator.
Add correct host key in /lustre2/home/toliste/.ssh/known_hosts to get rid of this message.
Offending ECDSA key in /lustre2/home/toliste/.ssh/known_hosts:3
Password authentication is disabled to avoid man-in-the-middle attacks.
Keyboard-interactive authentication is disabled to avoid man-in-the-middle attacks.
@@@@@@@@@@@@@@@@@@@@@@@@@@@@@@@@@@@@@@@@@@@@@@@@@@@@@@@@@@@
@    WARNING: REMOTE HOST IDENTIFICATION HAS CHANGED!     @
@@@@@@@@@@@@@@@@@@@@@@@@@@@@@@@@@@@@@@@@@@@@@@@@@@@@@@@@@@@
IT IS POSSIBLE THAT SOMEONE IS DOING SOMETHING NASTY!
Someone could be eavesdropping on you right now (man-in-the-middle attack)!
It is also possible that a host key has just been changed.
The fingerprint for the ECDSA key sent by the remote host is
SHA256:dgDupA/+cRkOk5AqlXAu83ghyZ+M9W1MPorM/60QNoc.
Please contact your system administrator.
Add correct host key in /lustre2/home/toliste/.ssh/known_hosts to get rid of this message.
Offending ECDSA key in /lustre2/home/toliste/.ssh/known_hosts:192
Password authentication is disabled to avoid man-in-the-middle attacks.
Keyboard-interactive authentication is disabled to avoid man-in-the-middle attacks.
@@@@@@@@@@@@@@@@@@@@@@@@@@@@@@@@@@@@@@@@@@@@@@@@@@@@@@@@@@@
@    WARNING: REMOTE HOST IDENTIFICATION HAS CHANGED!     @
@@@@@@@@@@@@@@@@@@@@@@@@@@@@@@@@@@@@@@@@@@@@@@@@@@@@@@@@@@@
IT IS POSSIBLE THAT SOMEONE IS DOING SOMETHING NASTY!
Someone could be eavesdropping on you right now (man-in-the-middle attack)!
It is also possible that a host key has just been changed.
The fingerprint for the ECDSA key sent by the remote host is
SHA256:o8EorsFJYrst8GGL5kkfWBd1g9VHd2QDvyGiBqJHMPw.
Please contact your system administrator.
Add correct host key in /lustre2/home/toliste/.ssh/known_hosts to get rid of this message.
Offending ECDSA key in /lustre2/home/toliste/.ssh/known_hosts:190
Password authentication is disabled to avoid man-in-the-middle attacks.
Keyboard-interactive authentication is disabled to avoid man-in-the-middle attacks.
@@@@@@@@@@@@@@@@@@@@@@@@@@@@@@@@@@@@@@@@@@@@@@@@@@@@@@@@@@@
@    WARNING: REMOTE HOST IDENTIFICATION HAS CHANGED!     @
@@@@@@@@@@@@@@@@@@@@@@@@@@@@@@@@@@@@@@@@@@@@@@@@@@@@@@@@@@@
IT IS POSSIBLE THAT SOMEONE IS DOING SOMETHING NASTY!
Someone could be eavesdropping on you right now (man-in-the-middle attack)!
It is also possible that a host key has just been changed.
The fingerprint for the ECDSA key sent by the remote host is
SHA256:pUAANVT+QIHMG3gDTB6Nfy5J4iYg5JWrtVNbA9fVJEg.
Please contact your system administrator.
Add correct host key in /lustre2/home/toliste/.ssh/known_hosts to get rid of this message.
Offending ECDSA key in /lustre2/home/toliste/.ssh/known_hosts:5
Password authentication is disabled to avoid man-in-the-middle attacks.
Keyboard-interactive authentication is disabled to avoid man-in-the-middle attacks.
@@@@@@@@@@@@@@@@@@@@@@@@@@@@@@@@@@@@@@@@@@@@@@@@@@@@@@@@@@@
@    WARNING: REMOTE HOST IDENTIFICATION HAS CHANGED!     @
@@@@@@@@@@@@@@@@@@@@@@@@@@@@@@@@@@@@@@@@@@@@@@@@@@@@@@@@@@@
IT IS POSSIBLE THAT SOMEONE IS DOING SOMETHING NASTY!
Someone could be eavesdropping on you right now (man-in-the-middle attack)!
It is also possible that a host key has just been changed.
The fingerprint for the ECDSA key sent by the remote host is
SHA256:2L8+rWmtOly5Dne65cLommFQX0Z6/FNW4pmamQkH48o.
Please contact your system administrator.
Add correct host key in /lustre2/home/toliste/.ssh/known_hosts to get rid of this message.
Offending ECDSA key in /lustre2/home/toliste/.ssh/known_hosts:4
Password authentication is disabled to avoid man-in-the-middle attacks.
Keyboard-interactive authentication is disabled to avoid man-in-the-middle attacks.
@@@@@@@@@@@@@@@@@@@@@@@@@@@@@@@@@@@@@@@@@@@@@@@@@@@@@@@@@@@
@    WARNING: REMOTE HOST IDENTIFICATION HAS CHANGED!     @
@@@@@@@@@@@@@@@@@@@@@@@@@@@@@@@@@@@@@@@@@@@@@@@@@@@@@@@@@@@
IT IS POSSIBLE THAT SOMEONE IS DOING SOMETHING NASTY!
Someone could be eavesdropping on you right now (man-in-the-middle attack)!
It is also possible that a host key has just been changed.
The fingerprint for the ECDSA key sent by the remote host is
SHA256:uDTyhacB/CVeW2vcMi8+W3dxfcXuwxtvyrCo/SGTo30.
Please contact your system administrator.
Add correct host key in /lustre2/home/toliste/.ssh/known_hosts to get rid of this message.
Offending ECDSA key in /lustre2/home/toliste/.ssh/known_hosts:2
Password authentication is disabled to avoid man-in-the-middle attacks.
Keyboard-interactive authentication is disabled to avoid man-in-the-middle attacks.
 (Enter /lustre1/prg/gaussian/bin/G16_C01_Linda9.2_SSE4/g16/linda-exe/l502.exel)
 Two-electron integral symmetry not used.
 Closed shell SCF:
 Using DIIS extrapolation, IDIIS=  1040.
 NGot= 11408506880 LenX= 11407832935 LenY= 11407501735
 Requested convergence on RMS density matrix=1.00D-08 within 128 cycles.
 Requested convergence on MAX density matrix=1.00D-06.
 Requested convergence on             energy=1.00D-06.
 No special actions if energy rises.
 Fock matrices will be formed incrementally for  20 cycles.

 Cycle   1  Pass 1  IDiag  1:
 FoFJK:  IHMeth= 1 ICntrl=       0 DoSepK=F KAlg= 0 I1Cent=           0 FoldK=F
 IRaf= 680000000 NMat=       1 IRICut=       1 DoRegI=T DoRafI=F ISym2E= 0 IDoP0=0 IntGTp=1.
 FoFCou: FMM=F IPFlag=           0 FMFlag=      100000 FMFlg1=           0
         NFxFlg=           0 DoJE=F BraDBF=F KetDBF=F FulRan=T
         wScrn=  0.000000 ICntrl=         0 IOpCl=  0 I1Cent=           0 NGrid=           0
         NMat0=    1 NMatS0=      1 NMatT0=    0 NMatD0=    1 NMtDS0=    0 NMtDT0=    0
 Symmetry not used in FoFCou.
 Inv3:  Mode=1 IEnd=    43479747.
 Iteration    1 A*A^-1 deviation from unit magnitude is 8.88D-15 for   3801.
 Iteration    1 A*A^-1 deviation from orthogonality  is 6.07D-15 for   3806   1363.
 Iteration    1 A^-1*A deviation from unit magnitude is 8.88D-15 for   3801.
 Iteration    1 A^-1*A deviation from orthogonality  is 1.99D-15 for   3783   1488.
 E= -1373.64474807732    
 DIIS: error= 3.84D-02 at cycle   1 NSaved=   1.
 NSaved= 1 IEnMin= 1 EnMin= -1373.64474807732     IErMin= 1 ErrMin= 3.84D-02
 ErrMax= 3.84D-02  0.00D+00 EMaxC= 1.00D-01 BMatC= 5.17D-01 BMatP= 5.17D-01
 IDIUse=3 WtCom= 6.16D-01 WtEn= 3.84D-01
 Coeff-Com:  0.100D+01
 Coeff-En:   0.100D+01
 Coeff:      0.100D+01
 Gap=     0.161 Goal=   None    Shift=    0.000
 GapD=    0.161 DampG=1.000 DampE=0.500 DampFc=0.5000 IDamp=-1.
 Damping current iteration by 5.00D-01
 RMSDP=3.12D-03 MaxDP=1.18D-01              OVMax= 1.47D-01

 Cycle   2  Pass 1  IDiag  1:
 RMSU=  1.47D-03    CP:  9.64D-01
 E= -1373.92093515465     Delta-E=       -0.276187077337 Rises=F Damp=T
 DIIS: error= 7.74D-03 at cycle   2 NSaved=   2.
 NSaved= 2 IEnMin= 2 EnMin= -1373.92093515465     IErMin= 2 ErrMin= 7.74D-03
 ErrMax= 7.74D-03  0.00D+00 EMaxC= 1.00D-01 BMatC= 4.38D-02 BMatP= 5.17D-01
 IDIUse=3 WtCom= 9.23D-01 WtEn= 7.74D-02
 Coeff-Com: -0.155D+00 0.116D+01
 Coeff-En:   0.000D+00 0.100D+01
 Coeff:     -0.143D+00 0.114D+01
 Gap=     0.182 Goal=   None    Shift=    0.000
 RMSDP=1.06D-03 MaxDP=6.14D-02 DE=-2.76D-01 OVMax= 8.62D-02

 Cycle   3  Pass 1  IDiag  1:
 RMSU=  7.45D-04    CP:  9.40D-01  1.45D+00
 E= -1374.16144468905     Delta-E=       -0.240509534396 Rises=F Damp=F
 DIIS: error= 5.63D-03 at cycle   3 NSaved=   3.
 NSaved= 3 IEnMin= 3 EnMin= -1374.16144468905     IErMin= 3 ErrMin= 5.63D-03
 ErrMax= 5.63D-03  0.00D+00 EMaxC= 1.00D-01 BMatC= 1.47D-02 BMatP= 4.38D-02
 IDIUse=3 WtCom= 9.44D-01 WtEn= 5.63D-02
 Coeff-Com: -0.113D+00 0.449D+00 0.665D+00
 Coeff-En:   0.000D+00 0.000D+00 0.100D+01
 Coeff:     -0.107D+00 0.423D+00 0.684D+00
 Gap=     0.161 Goal=   None    Shift=    0.000
 RMSDP=2.99D-04 MaxDP=1.69D-02 DE=-2.41D-01 OVMax= 3.71D-02

 Cycle   4  Pass 1  IDiag  1:
 RMSU=  2.30D-04    CP:  9.41D-01  1.48D+00  7.49D-01
 E= -1374.17158381402     Delta-E=       -0.010139124971 Rises=F Damp=F
 DIIS: error= 2.06D-03 at cycle   4 NSaved=   4.
 NSaved= 4 IEnMin= 4 EnMin= -1374.17158381402     IErMin= 4 ErrMin= 2.06D-03
 ErrMax= 2.06D-03  0.00D+00 EMaxC= 1.00D-01 BMatC= 3.73D-03 BMatP= 1.47D-02
 IDIUse=3 WtCom= 9.79D-01 WtEn= 2.06D-02
 Coeff-Com: -0.388D-01 0.105D+00 0.370D+00 0.564D+00
 Coeff-En:   0.000D+00 0.000D+00 0.197D+00 0.803D+00
 Coeff:     -0.380D-01 0.103D+00 0.366D+00 0.569D+00
 Gap=     0.163 Goal=   None    Shift=    0.000
 RMSDP=1.16D-04 MaxDP=7.19D-03 DE=-1.01D-02 OVMax= 1.70D-02

 Cycle   5  Pass 1  IDiag  1:
 RMSU=  5.63D-05    CP:  9.41D-01  1.48D+00  8.26D-01  6.39D-01
 E= -1374.17505066599     Delta-E=       -0.003466851968 Rises=F Damp=F
 DIIS: error= 3.27D-04 at cycle   5 NSaved=   5.
 NSaved= 5 IEnMin= 5 EnMin= -1374.17505066599     IErMin= 5 ErrMin= 3.27D-04
 ErrMax= 3.27D-04  0.00D+00 EMaxC= 1.00D-01 BMatC= 1.65D-04 BMatP= 3.73D-03
 IDIUse=3 WtCom= 9.97D-01 WtEn= 3.27D-03
 Coeff-Com: -0.907D-02 0.150D-01 0.116D+00 0.255D+00 0.623D+00
 Coeff-En:   0.000D+00 0.000D+00 0.000D+00 0.000D+00 0.100D+01
 Coeff:     -0.904D-02 0.150D-01 0.115D+00 0.254D+00 0.624D+00
 Gap=     0.163 Goal=   None    Shift=    0.000
 RMSDP=2.62D-05 MaxDP=1.69D-03 DE=-3.47D-03 OVMax= 3.06D-03

 Cycle   6  Pass 1  IDiag  1:
 RMSU=  1.75D-05    CP:  9.41D-01  1.48D+00  8.29D-01  6.80D-01  7.10D-01
 E= -1374.17520744162     Delta-E=       -0.000156775630 Rises=F Damp=F
 DIIS: error= 1.29D-04 at cycle   6 NSaved=   6.
 NSaved= 6 IEnMin= 6 EnMin= -1374.17520744162     IErMin= 6 ErrMin= 1.29D-04
 ErrMax= 1.29D-04  0.00D+00 EMaxC= 1.00D-01 BMatC= 1.08D-05 BMatP= 1.65D-04
 IDIUse=3 WtCom= 9.99D-01 WtEn= 1.29D-03
 Coeff-Com: -0.171D-02 0.742D-03 0.271D-01 0.725D-01 0.267D+00 0.634D+00
 Coeff-En:   0.000D+00 0.000D+00 0.000D+00 0.000D+00 0.000D+00 0.100D+01
 Coeff:     -0.171D-02 0.741D-03 0.270D-01 0.724D-01 0.267D+00 0.634D+00
 Gap=     0.163 Goal=   None    Shift=    0.000
 RMSDP=7.53D-06 MaxDP=2.59D-04 DE=-1.57D-04 OVMax= 1.40D-03

 Cycle   7  Pass 1  IDiag  1:
 RMSU=  5.89D-06    CP:  9.41D-01  1.48D+00  8.31D-01  6.80D-01  7.73D-01
                    CP:  8.47D-01
 E= -1374.17521887855     Delta-E=       -0.000011436932 Rises=F Damp=F
 DIIS: error= 2.90D-05 at cycle   7 NSaved=   7.
 NSaved= 7 IEnMin= 7 EnMin= -1374.17521887855     IErMin= 7 ErrMin= 2.90D-05
 ErrMax= 2.90D-05  0.00D+00 EMaxC= 1.00D-01 BMatC= 9.16D-07 BMatP= 1.08D-05
 IDIUse=1 WtCom= 1.00D+00 WtEn= 0.00D+00
 Coeff-Com:  0.429D-03-0.156D-02-0.327D-02-0.221D-02 0.251D-01 0.221D+00
 Coeff-Com:  0.760D+00
 Coeff:      0.429D-03-0.156D-02-0.327D-02-0.221D-02 0.251D-01 0.221D+00
 Coeff:      0.760D+00
 Gap=     0.163 Goal=   None    Shift=    0.000
 RMSDP=2.96D-06 MaxDP=1.38D-04 DE=-1.14D-05 OVMax= 5.05D-04

 Cycle   8  Pass 1  IDiag  1:
 RMSU=  2.19D-06    CP:  9.41D-01  1.48D+00  8.31D-01  6.85D-01  7.82D-01
                    CP:  9.40D-01  9.77D-01
 E= -1374.17522000242     Delta-E=       -0.000001123868 Rises=F Damp=F
 DIIS: error= 1.26D-05 at cycle   8 NSaved=   8.
 NSaved= 8 IEnMin= 8 EnMin= -1374.17522000242     IErMin= 8 ErrMin= 1.26D-05
 ErrMax= 1.26D-05  0.00D+00 EMaxC= 1.00D-01 BMatC= 1.87D-07 BMatP= 9.16D-07
 IDIUse=1 WtCom= 1.00D+00 WtEn= 0.00D+00
 Coeff-Com:  0.536D-03-0.925D-03-0.639D-02-0.140D-01-0.360D-01-0.432D-02
 Coeff-Com:  0.358D+00 0.704D+00
 Coeff:      0.536D-03-0.925D-03-0.639D-02-0.140D-01-0.360D-01-0.432D-02
 Coeff:      0.358D+00 0.704D+00
 Gap=     0.163 Goal=   None    Shift=    0.000
 RMSDP=1.23D-06 MaxDP=5.74D-05 DE=-1.12D-06 OVMax= 2.88D-04

 Cycle   9  Pass 1  IDiag  1:
 RMSU=  6.56D-07    CP:  9.41D-01  1.48D+00  8.31D-01  6.85D-01  7.89D-01
                    CP:  9.67D-01  1.08D+00  7.81D-01
 E= -1374.17522025506     Delta-E=       -0.000000252638 Rises=F Damp=F
 DIIS: error= 2.88D-06 at cycle   9 NSaved=   9.
 NSaved= 9 IEnMin= 9 EnMin= -1374.17522025506     IErMin= 9 ErrMin= 2.88D-06
 ErrMax= 2.88D-06  0.00D+00 EMaxC= 1.00D-01 BMatC= 9.63D-09 BMatP= 1.87D-07
 IDIUse=1 WtCom= 1.00D+00 WtEn= 0.00D+00
 Coeff-Com:  0.152D-03-0.214D-03-0.183D-02-0.438D-02-0.133D-01-0.113D-01
 Coeff-Com:  0.686D-01 0.239D+00 0.724D+00
 Coeff:      0.152D-03-0.214D-03-0.183D-02-0.438D-02-0.133D-01-0.113D-01
 Coeff:      0.686D-01 0.239D+00 0.724D+00
 Gap=     0.163 Goal=   None    Shift=    0.000
 RMSDP=3.09D-07 MaxDP=2.35D-05 DE=-2.53D-07 OVMax= 4.56D-05

 Cycle  10  Pass 1  IDiag  1:
 RMSU=  2.26D-07    CP:  9.41D-01  1.48D+00  8.31D-01  6.85D-01  7.89D-01
                    CP:  9.73D-01  1.10D+00  8.48D-01  9.55D-01
 E= -1374.17522026666     Delta-E=       -0.000000011600 Rises=F Damp=F
 DIIS: error= 1.43D-06 at cycle  10 NSaved=  10.
 NSaved=10 IEnMin=10 EnMin= -1374.17522026666     IErMin=10 ErrMin= 1.43D-06
 ErrMax= 1.43D-06  0.00D+00 EMaxC= 1.00D-01 BMatC= 2.21D-09 BMatP= 9.63D-09
 IDIUse=1 WtCom= 1.00D+00 WtEn= 0.00D+00
 Coeff-Com: -0.110D-04 0.386D-04 0.169D-03 0.216D-03-0.583D-03-0.427D-02
 Coeff-Com: -0.279D-01 0.317D-02 0.342D+00 0.688D+00
 Coeff:     -0.110D-04 0.386D-04 0.169D-03 0.216D-03-0.583D-03-0.427D-02
 Coeff:     -0.279D-01 0.317D-02 0.342D+00 0.688D+00
 Gap=     0.163 Goal=   None    Shift=    0.000
 RMSDP=1.19D-07 MaxDP=6.21D-06 DE=-1.16D-08 OVMax= 2.31D-05

 Cycle  11  Pass 1  IDiag  1:
 RMSU=  7.83D-08    CP:  9.41D-01  1.48D+00  8.31D-01  6.85D-01  7.89D-01
                    CP:  9.75D-01  1.10D+00  8.60D-01  1.06D+00  8.79D-01
 E= -1374.17522026941     Delta-E=       -0.000000002754 Rises=F Damp=F
 DIIS: error= 4.43D-07 at cycle  11 NSaved=  11.
 NSaved=11 IEnMin=11 EnMin= -1374.17522026941     IErMin=11 ErrMin= 4.43D-07
 ErrMax= 4.43D-07  0.00D+00 EMaxC= 1.00D-01 BMatC= 1.83D-10 BMatP= 2.21D-09
 IDIUse=1 WtCom= 1.00D+00 WtEn= 0.00D+00
 Coeff-Com: -0.220D-04 0.404D-04 0.283D-03 0.609D-03 0.129D-02-0.304D-03
 Coeff-Com: -0.205D-01-0.266D-01 0.462D-01 0.268D+00 0.731D+00
 Coeff:     -0.220D-04 0.404D-04 0.283D-03 0.609D-03 0.129D-02-0.304D-03
 Coeff:     -0.205D-01-0.266D-01 0.462D-01 0.268D+00 0.731D+00
 Gap=     0.163 Goal=   None    Shift=    0.000
 RMSDP=4.00D-08 MaxDP=1.71D-06 DE=-2.75D-09 OVMax= 6.86D-06

 Cycle  12  Pass 1  IDiag  1:
 RMSU=  2.36D-08    CP:  9.41D-01  1.48D+00  8.31D-01  6.85D-01  7.89D-01
                    CP:  9.76D-01  1.10D+00  8.64D-01  1.09D+00  9.68D-01
                    CP:  9.17D-01
 E= -1374.17522026962     Delta-E=       -0.000000000214 Rises=F Damp=F
 DIIS: error= 1.72D-07 at cycle  12 NSaved=  12.
 NSaved=12 IEnMin=12 EnMin= -1374.17522026962     IErMin=12 ErrMin= 1.72D-07
 ErrMax= 1.72D-07  0.00D+00 EMaxC= 1.00D-01 BMatC= 1.45D-11 BMatP= 1.83D-10
 IDIUse=1 WtCom= 1.00D+00 WtEn= 0.00D+00
 Coeff-Com: -0.624D-05 0.990D-05 0.819D-04 0.187D-03 0.462D-03 0.301D-03
 Coeff-Com: -0.476D-02-0.788D-02-0.111D-01 0.418D-01 0.267D+00 0.713D+00
 Coeff:     -0.624D-05 0.990D-05 0.819D-04 0.187D-03 0.462D-03 0.301D-03
 Coeff:     -0.476D-02-0.788D-02-0.111D-01 0.418D-01 0.267D+00 0.713D+00
 Gap=     0.163 Goal=   None    Shift=    0.000
 RMSDP=9.34D-09 MaxDP=5.76D-07 DE=-2.14D-10 OVMax= 2.06D-06

 Error on total polarization charges =  0.01576
 SCF Done:  E(RM062X) =  -1374.17522027     A.U. after   12 cycles
            NFock= 12  Conv=0.93D-08     -V/T= 2.0062
 KE= 1.365672155016D+03 PE=-8.896218843616D+03 EE= 3.308419943733D+03
 Leave Link  502 at Tue Feb  1 06:39:02 2022, MaxMem= 11408506880 cpu:            1713.1 elap:             151.6
 (Enter /lustre1/prg/gaussian/bin/G16_C01_Linda9.2_SSE4/g16/l801.exe)
 DoSCS=F DFT=T ScalE2(SS,OS)=  1.000000  1.000000
 Range of M.O.s used for correlation:     1   543
 NBasis=   543 NAE=   109 NBE=   109 NFC=     0 NFV=     0
 NROrb=    543 NOA=   109 NOB=   109 NVA=   434 NVB=   434

 **** Warning!!: The largest alpha MO coefficient is  0.13593171D+02

 Leave Link  801 at Tue Feb  1 06:39:02 2022, MaxMem= 11408506880 cpu:               0.6 elap:               0.1
@@@@@@@@@@@@@@@@@@@@@@@@@@@@@@@@@@@@@@@@@@@@@@@@@@@@@@@@@@@
@    WARNING: REMOTE HOST IDENTIFICATION HAS CHANGED!     @
@@@@@@@@@@@@@@@@@@@@@@@@@@@@@@@@@@@@@@@@@@@@@@@@@@@@@@@@@@@
IT IS POSSIBLE THAT SOMEONE IS DOING SOMETHING NASTY!
Someone could be eavesdropping on you right now (man-in-the-middle attack)!
It is also possible that a host key has just been changed.
The fingerprint for the ECDSA key sent by the remote host is
SHA256:dgDupA/+cRkOk5AqlXAu83ghyZ+M9W1MPorM/60QNoc.
Please contact your system administrator.
Add correct host key in /lustre2/home/toliste/.ssh/known_hosts to get rid of this message.
Offending ECDSA key in /lustre2/home/toliste/.ssh/known_hosts:192
Password authentication is disabled to avoid man-in-the-middle attacks.
Keyboard-interactive authentication is disabled to avoid man-in-the-middle attacks.
@@@@@@@@@@@@@@@@@@@@@@@@@@@@@@@@@@@@@@@@@@@@@@@@@@@@@@@@@@@
@    WARNING: REMOTE HOST IDENTIFICATION HAS CHANGED!     @
@@@@@@@@@@@@@@@@@@@@@@@@@@@@@@@@@@@@@@@@@@@@@@@@@@@@@@@@@@@
IT IS POSSIBLE THAT SOMEONE IS DOING SOMETHING NASTY!
Someone could be eavesdropping on you right now (man-in-the-middle attack)!
It is also possible that a host key has just been changed.
The fingerprint for the ECDSA key sent by the remote host is
SHA256:2L8+rWmtOly5Dne65cLommFQX0Z6/FNW4pmamQkH48o.
Please contact your system administrator.
Add correct host key in /lustre2/home/toliste/.ssh/known_hosts to get rid of this message.
Offending ECDSA key in /lustre2/home/toliste/.ssh/known_hosts:4
Password authentication is disabled to avoid man-in-the-middle attacks.
Keyboard-interactive authentication is disabled to avoid man-in-the-middle attacks.
@@@@@@@@@@@@@@@@@@@@@@@@@@@@@@@@@@@@@@@@@@@@@@@@@@@@@@@@@@@
@    WARNING: REMOTE HOST IDENTIFICATION HAS CHANGED!     @
@@@@@@@@@@@@@@@@@@@@@@@@@@@@@@@@@@@@@@@@@@@@@@@@@@@@@@@@@@@
IT IS POSSIBLE THAT SOMEONE IS DOING SOMETHING NASTY!
Someone could be eavesdropping on you right now (man-in-the-middle attack)!
It is also possible that a host key has just been changed.
[...]
 96551,-0.00060396,0.00004680,0.00076046,-0.00246982,0.00486532,0.00281
 434,-0.00049143,0.00172081,0.00068027,0.00054554,-0.00102095,-0.000718
 60,-0.09170309,0.27255277,0.00000418,-0.00007128,-0.00002185,-0.000098
 79,-0.00001768,0.00008848,0.00004076,0.00013241,0.00003260,0.00008489,
 -0.00002750,-0.00011376,-0.00014313,0.00008552,0.00019621,-0.00001481,
 0.00000067,0.00001086,-0.00000625,-0.00000536,-0.00000563,0.00000166,-
 0.00000568,-0.00000160,-0.00000342,-0.00000261,-0.00000189,0.00001684,
 -0.00001003,-0.00000717,-0.00001408,-0.00000360,-0.00000134,0.00031468
 ,0.00003974,-0.00024025,-0.00019165,-0.00036312,0.00016933,-0.00016286
 ,-0.00014219,0.00011371,-0.00175686,-0.00019174,-0.00150166,0.00037320
 ,0.00059308,-0.00076946,-0.00007211,0.00021314,0.00010082,-0.00004251,
 0.00005872,0.00002576,0.00003630,-0.00013102,-0.00015310,0.00002887,0.
 00003039,0.00006377,-0.00000081,-0.00000227,0.00000103,-0.00000204,-0.
 00000038,-0.00000264,-0.00000500,0.00000562,-0.00000044,0.00000046,-0.
 00000309,-0.00000150,-0.00000073,-0.00000175,0.00000058,-0.00000198,-0
 .00000297,-0.00000074,0.00000045,0.00000036,0.00000417,-0.00006719,-0.
 00000285,-0.00000904,0.00068932,0.00009572,-0.00126972,0.00001573,-0.0
 0000354,-0.00001651,-0.00000533,0.00000355,0.00000601,-0.00001038,-0.0
 0000097,0.00000857,-0.00000202,0.00000264,0.00000202,0.00000342,-0.000
 00099,-0.00000057,-0.00000541,-0.00000280,0.00000610,0.00000106,0.0000
 0066,-0.00000209,0.00000135,-0.00000184,-0.00000263,-0.00000146,-0.000
 00107,0.00000144,-0.00000128,0.00000123,0.00000144,-0.00000097,-0.0000
 0009,0.00000051,-0.00355368,0.00917091,0.00792431,0.00368777,0.0021360
 8,0.00226041,0.05085495,-0.09813682,-0.09689408,-0.00016060,0.00053738
 ,-0.00060467,0.00756953,-0.02120638,-0.00519424,0.00642714,0.00151680,
 -0.00001591,-0.00015275,0.00051605,0.00038817,-0.06068535,0.10613366,0
 .09736851,-0.00000230,-0.00005244,-0.00002784,-0.00006903,-0.00001352,
 0.00006591,0.00002827,0.00009293,0.00002542,0.00006152,-0.00001821,-0.
 00007498,-0.00009511,0.00005681,0.00014086,-0.00001140,-0.00000123,0.0
 0000736,-0.00000301,-0.00000188,-0.00000293,-0.00000100,-0.00000394,-0
 .00000161,-0.00000063,-0.00000389,-0.00000208,0.00001200,-0.00000344,-
 0.00000430,-0.00000234,-0.00000714,0.00000119,0.00018723,0.00006426,-0
 .00016649,-0.00019004,-0.00008160,0.00016163,0.00010882,0.00004644,-0.
 00008317,0.00003739,0.00084235,0.00016389,-0.00031006,-0.00012950,0.00
 008001,-0.00009105,0.00012405,0.00023456,-0.00001031,0.00003803,0.0000
 0496,0.00001269,-0.00011014,-0.00007764,0.00002003,0.00001995,0.000038
 64,-0.00000101,-0.00000105,-0.00000005,-0.00000125,-0.00000046,-0.0000
 0149,-0.00000291,0.00000433,-0.00000089,0.00000038,-0.00000239,-0.0000
 0069,-0.00000063,-0.00000123,0.00000042,-0.00000137,-0.00000182,-0.000
 00020,0.00000038,0.00000010,0.00000296,-0.00000071,0.00000356,0.000016
 13,0.00000827,0.00000949,-0.00000351,0.00000935,-0.00000164,-0.0000121
 3,-0.00000352,0.00000247,0.00000376,-0.00000695,-0.00000072,0.00000608
 ,-0.00000131,0.00000191,0.00000146,0.00000241,-0.00000069,-0.00000034,
 -0.00000369,-0.00000197,0.00000417,0.00000066,0.00000038,-0.00000138,0
 .00000084,-0.00000121,-0.00000181,-0.00000097,-0.00000073,0.00000098,-
 0.00000085,0.00000082,0.00000095,-0.00000066,-0.00000006,0.00000031,0.
 00265763,-0.00111573,0.00620492,-0.00239932,0.01735385,0.00739799,-0.0
 0076502,-0.00053738,-0.00007220,-0.08094074,0.08372352,0.05115947,0.00
 404390,-0.00200316,0.00392739,0.00687622,-0.00888369,-0.00358289,-0.00
 212610,-0.00014153,-0.00276175,-0.00064771,0.00009307,-0.00060468,0.07
 557166,-0.00000631,0.00005013,0.00003420,0.00006101,0.00001001,-0.0000
 6115,-0.00002563,-0.00008220,-0.00002200,-0.00005371,0.00001598,0.0000
 6599,0.00008210,-0.00004926,-0.00011919,0.00000951,0.00000058,-0.00000
 635,0.00000221,0.00000185,0.00000213,0.00000059,0.00000295,0.00000100,
 0.00000039,0.00000277,0.00000146,-0.00000916,0.00000259,0.00000357,0.0
 0000059,0.00000496,-0.00000090,-0.00015818,-0.00005490,0.00013720,0.00
 014226,0.00006258,-0.00013241,-0.00008090,-0.00008112,0.00004827,-0.00
 009569,0.00021243,0.00018954,-0.00000993,0.00003840,0.00003638,0.00007
 646,-0.00003486,-0.00009658,0.00000569,-0.00002716,-0.00000323,0.00000
 210,0.00006415,0.00005514,-0.00001414,-0.00001213,-0.00002341,0.000000
 88,0.00000094,0.00000008,0.00000084,0.00000034,0.00000144,0.00000169,-
 0.00000330,0.00000173,-0.00000028,0.00000162,0.00000084,0.00000038,0.0
 0000091,-0.00000015,0.00000110,0.00000141,0.00000021,-0.00000033,-0.00
 000008,-0.00000234,-0.00001600,-0.00001177,0.00000353,0.00000279,0.000
 00141,0.00000655,-0.00000804,0.00000110,0.00001048,0.00000285,-0.00000
 199,-0.00000304,0.00000596,0.00000054,-0.00000527,0.00000110,-0.000001
 76,-0.00000129,-0.00000215,0.00000060,0.00000033,0.00000315,0.00000174
 ,-0.00000358,-0.00000052,-0.00000034,0.00000119,-0.00000067,0.00000103
 ,0.00000158,0.00000081,0.00000063,-0.00000080,0.00000072,-0.00000071,-
 0.00000078,0.00000059,0.00000005,-0.00000026,-0.00088299,0.00168276,0.
 00090603,-0.00256031,0.00508919,0.00308765,-0.00054426,0.00003292,0.00
 064407,0.08375571,-0.26072265,-0.10262623,-0.00245241,-0.00343578,0.00
 283494,0.01121925,-0.01642425,-0.01365626,0.00022641,0.00066305,-0.000
 20898,0.00009958,-0.00002096,-0.00010559,-0.08935073,0.27281372,-0.000
 01087,0.00008213,0.00004871,0.00010898,0.00001622,-0.00010218,-0.00004
 291,-0.00014223,-0.00003701,-0.00009324,0.00002843,0.00011400,0.000142
 94,-0.00008562,-0.00020783,0.00001728,0.00000080,-0.00001058,0.0000042
 9,0.00000350,0.00000432,0.00000014,0.00000561,0.00000172,0.00000105,0.
 00000404,0.00000213,-0.00001578,0.00000570,0.00000643,0.00000211,0.000
 00804,0.00000124,-0.00027722,-0.00009119,0.00024101,0.00028849,0.00016
 664,-0.00021893,-0.00025576,-0.00010075,0.00011519,0.00011613,-0.00101
 788,0.00006921,0.00021148,0.00018114,-0.00024585,0.00005565,-0.0001918
 4,-0.00023362,0.00000931,-0.00004733,-0.00000446,0.00001259,0.00012515
 ,0.00008623,-0.00002773,-0.00002050,-0.00004034,0.00000128,0.00000186,
 -0.00000027,0.00000168,0.00000050,0.00000249,0.00000311,-0.00000594,0.
 00000176,-0.00000030,0.00000333,0.00000130,0.00000072,0.00000151,-0.00
 000038,0.00000174,0.00000250,0.00000050,-0.00000066,-0.00000010,-0.000
 00403,-0.00000381,0.00000394,0.00002506,0.00000778,-0.00001824,-0.0000
 1596,-0.00001425,0.00000228,0.00001743,0.00000495,-0.00000347,-0.00000
 532,0.00001016,0.00000086,-0.00000902,0.00000190,-0.00000280,-0.000002
 15,-0.00000367,0.00000093,0.00000059,0.00000533,0.00000297,-0.00000609
 ,-0.00000088,-0.00000054,0.00000204,-0.00000115,0.00000177,0.00000274,
 0.00000143,0.00000104,-0.00000137,0.00000125,-0.00000118,-0.00000133,0
 .00000098,0.00000010,-0.00000041,0.00634388,0.00128104,0.00014740,0.00
 720291,-0.02062177,-0.00491988,-0.00000677,0.00073459,-0.00082157,0.05
 135708,-0.10220334,-0.10192546,0.00375706,0.00232356,0.00295797,-0.003
 36485,0.00986612,0.00815529,-0.00276622,0.00009838,-0.00102005,-0.0006
 0609,-0.00011506,-0.00042658,-0.05959072,0.10966047,0.09927231,0.00000
 562,-0.00005529,-0.00003496,-0.00007173,-0.00001144,0.00007001,0.00002
 834,0.00009653,0.00002577,0.00006366,-0.00001760,-0.00007640,-0.000098
 10,0.00005035,0.00014564,-0.00001148,-0.00000072,0.00000756,-0.0000032
 1,-0.00000236,-0.00000259,-0.00000046,-0.00000396,-0.00000135,-0.00000
 087,-0.00000309,-0.00000183,0.00001114,-0.00000405,-0.00000420,-0.0000
 0088,-0.00000274,0.00000153,0.00017915,0.00007130,-0.00014725,-0.00023
 125,-0.00015902,0.00009880,-0.00009729,0.00015428,0.00007731,0.0001281
 5,-0.00111641,-0.00002250,-0.00004373,-0.00005165,-0.00008487,-0.00005
 545,0.00011039,0.00016206,-0.00000827,0.00003993,0.00000438,0.00000111
 ,-0.00009160,-0.00007295,0.00001827,0.00001698,0.00003122,-0.00000097,
 -0.00000123,0.00000022,-0.00000093,-0.00000046,-0.00000169,-0.00000276
 ,0.00000441,-0.00000182,0.00000032,-0.00000213,-0.00000103,-0.00000052
 ,-0.00000114,0.00000028,-0.00000138,-0.00000184,-0.00000038,0.00000029
 ,0.00000012,0.00000294,-0.00000051,-0.00001022,-0.00000048,0.00001343,
 0.00001838,-0.00000509,0.00000979,-0.00000114,-0.00001243,-0.00000348,
 0.00000231,0.00000370,-0.00000716,-0.00000069,0.00000639,-0.00000131,0
 .00000197,0.00000147,0.00000251,-0.00000058,-0.00000041,-0.00000374,-0
 .00000202,0.00000423,0.00000064,0.00000041,-0.00000141,0.00000085,-0.0
 0000120,-0.00000186,-0.00000096,-0.00000072,0.00000095,-0.00000088,0.0
 0000083,0.00000098,-0.00000067,-0.00000007,0.00000030,0.00232210,0.000
 51786,0.00648769,-0.00091303,0.00054406,0.00009972,-0.00108761,-0.0181
 6500,0.00570648,0.00400142,0.00212240,0.00413817,-0.07057604,-0.074046
 58,0.03686727,0.00698114,0.01027927,-0.00345943,-0.00062896,-0.0000863
 1,-0.00060996,-0.00201312,0.00012017,-0.00278051,0.00020604,0.00053839
 ,-0.00016738,0.06403564,0.00001037,-0.00006549,-0.00004608,-0.00008233
 ,-0.00001263,0.00008142,0.00003439,0.00010929,0.00002875,0.00007168,-0
 .00002143,-0.00008777,-0.00010971,0.00006564,0.00015693,-0.00001258,-0
 .00000063,0.00000830,-0.00000295,-0.00000253,-0.00000276,-0.00000063,-
 0.00000376,-0.00000123,-0.00000053,-0.00000343,-0.00000166,0.00001175,
 -0.00000336,-0.00000501,-0.00000168,-0.00000739,0.00000094,0.00021246,
 0.00007026,-0.00018376,-0.00020362,-0.00009641,0.00018958,0.00014048,0
 .00011802,-0.00008623,0.00008211,-0.00019067,-0.00020541,-0.00004878,-
 0.00003935,0.00002404,-0.00006529,0.00006355,0.00011016,-0.00000633,0.
 00003313,0.00000289,-0.00000866,-0.00008112,-0.00005782,0.00001859,0.0
 0001467,0.00002755,-0.00000120,-0.00000128,-0.00000002,-0.00000111,-0.
 00000045,-0.00000195,-0.00000208,0.00000406,-0.00000185,0.00000035,-0.
 00000200,-0.00000110,-0.00000045,-0.00000111,0.00000019,-0.00000138,-0
 .00000183,-0.00000030,0.00000040,0.00000007,0.00000304,0.00001101,0.00
 000530,-0.00000022,0.00000179,-0.00000448,-0.00001226,0.00001040,-0.00
 000146,-0.00001345,-0.00000364,0.00000261,0.00000388,-0.00000779,-0.00
 000075,0.00000688,-0.00000147,0.00000229,0.00000171,0.00000283,-0.0000
 0076,-0.00000044,-0.00000408,-0.00000230,0.00000465,0.00000066,0.00000
 043,-0.00000155,0.00000087,-0.00000132,-0.00000208,-0.00000105,-0.0000
 0081,0.00000102,-0.00000095,0.00000093,0.00000103,-0.00000076,-0.00000
 008,0.00000033,0.00019703,0.00195218,-0.00037633,0.00047509,0.00023087
 ,-0.00056562,0.00157314,0.00211630,-0.00185752,0.00250298,-0.00258226,
 -0.00310428,-0.07446881,-0.29090080,0.08695689,-0.00924522,-0.01654444
 ,0.01088069,-0.00007440,-0.00005159,0.00010495,-0.00010012,0.00066982,
 0.00020328,-0.00045528,-0.00098925,0.00051869,0.07956405,0.30504658,-0
 .00000853,0.00006698,0.00004447,0.00008726,0.00001394,-0.00008504,-0.0
 0003496,-0.00011686,-0.00003080,-0.00007905,0.00002163,0.00009060,0.00
 012238,-0.00006008,-0.00017641,0.00001355,0.00000068,-0.00000865,0.000
 00402,0.00000315,0.00000343,0.00000011,0.00000480,0.00000142,0.0000010
 5,0.00000326,0.00000205,-0.00001302,0.00000517,0.00000495,0.00000130,0
 .00000471,-0.00000128,-0.00020878,-0.00009925,0.00019134,0.00029848,0.
 00018829,-0.00018936,-0.00003703,-0.00015295,-0.00023728,0.00015458,0.
 00130911,0.00015870,0.00003965,0.00001163,0.00001483,0.00007001,-0.000
 10196,-0.00015318,0.00000896,-0.00004449,-0.00000525,0.00000266,0.0001
 0468,0.00008246,-0.00002315,-0.00001944,-0.00003690,0.00000132,0.00000
 148,-0.00000021,0.00000126,0.00000056,0.00000211,0.00000328,-0.0000052
 4,0.00000193,-0.00000033,0.00000256,0.00000124,0.00000059,0.00000131,-
 0.00000030,0.00000156,0.00000214,0.00000054,-0.00000041,-0.00000013,-0
 .00000342,-0.00001590,0.00000150,0.00000901,0.00001043,-0.00000322,-0.
 00001289,-0.00001123,0.00000120,0.00001488,0.00000405,-0.00000289,-0.0
 0000441,0.00000860,0.00000094,-0.00000767,0.00000158,-0.00000239,-0.00
 000186,-0.00000304,0.00000071,0.00000040,0.00000445,0.00000244,-0.0000
 0508,-0.00000072,-0.00000049,0.00000173,-0.00000095,0.00000144,0.00000
 230,0.00000117,0.00000086,-0.00000113,0.00000109,-0.00000100,-0.000001
 16,0.00000083,0.00000008,-0.00000034,0.00635871,-0.00072851,0.00015838
 ,0.00002182,-0.00057859,-0.00086453,0.00587740,0.02205507,-0.00329164,
 0.00430298,-0.00256002,0.00213837,0.03665663,0.08679336,-0.08227307,-0
 .00364598,-0.01315841,0.00819347,-0.00061345,0.00009651,-0.00040175,-0
 .00275709,-0.00020757,-0.00111216,-0.00019011,-0.00067480,0.00026983,-
 0.04398343,-0.09275858,0.07874544,-0.00000847,-0.00000668,0.00001168,-
 0.00000808,-0.00000295,0.00000297,0.00000187,0.00001256,0.00000508,0.0
 0000773,-0.00000232,-0.00001085,-0.00001732,0.00000964,0.00002154,0.00
 000034,-0.00000184,0.00000246,-0.00000161,0.00000005,0.00000006,-0.000
 00064,-0.00000094,-0.00000068,-0.00000096,-0.00000138,-0.00000062,0.00
 000404,-0.00000265,-0.00000101,-0.00000587,0.00000255,-0.00000007,0.00
 003573,0.00000207,-0.00001700,-0.00002494,-0.00000460,-0.00003755,-0.0
 0005312,0.00000459,0.00011239,-0.00059511,0.00004283,-0.00056341,0.000
 06621,-0.00002117,-0.00009847,-0.00011946,0.00002442,0.00012628,-0.000
 00979,0.00002203,0.00000736,0.00003820,-0.00005976,-0.00006820,0.00000
 624,0.00001292,0.00002790,0.00000018,-0.00000022,0.00000016,-0.0000004
 4,-0.00000006,-0.00000039,-0.00000209,0.00000188,-0.00000116,0.0000001
 5,-0.00000055,-0.00000013,-0.00000027,-0.00000044,0.,-0.00000051,-0.00
 000068,-0.00000009,0.00000007,0.00000033,0.00000067,0.00003553,-0.0000
 1701,0.00003250,0.00003755,-0.00002551,-0.00000888,0.00000317,-0.00000
 066,-0.00000313,-0.00000122,0.00000036,0.00000130,-0.00000159,-0.00000
 004,0.00000149,-0.00000019,0.00000029,0.00000008,0.00000039,-0.0000001
 8,-0.00000010,-0.00000091,-0.00000026,0.00000102,0.00000025,0.00000016
 ,-0.00000033,0.00000030,-0.00000030,-0.00000039,-0.00000023,-0.0000001
 9,0.00000025,-0.00000020,0.00000021,0.00000025,-0.00000015,0.,0.000000
 12,-0.00019548,0.00010327,-0.00073233,0.00473490,-0.00190013,0.0030971
 8,0.00447610,0.00195807,0.00355934,-0.00156584,0.00198093,0.00631432,-
 0.00241507,-0.00305979,0.00717799,-0.16486771,-0.01138128,0.15169609,-
 0.00019157,0.00011867,0.00030808,-0.00025755,-0.00010471,0.00039609,-0
 .00215468,0.00002723,-0.00242342,-0.00214288,-0.00000951,-0.00243460,0
 .16519501,-0.00000346,0.00000461,0.00000657,0.00000586,0.00000023,-0.0
 0000670,-0.00000264,-0.00000741,-0.00000118,-0.00000519,0.00000174,0.0
 0000570,0.00000552,-0.00000377,-0.00001083,0.00000111,-0.00000073,-0.0
 0000012,0.00000020,0.00000086,0.00000084,-0.00000038,0.00000031,-0.000
 00006,-0.00000026,-0.00000023,-0.00000011,-0.00000024,0.00000013,0.000
 00073,0.00000085,0.00000124,0.00000001,-0.00001236,-0.00000421,0.00001
 595,0.00005047,0.00003414,-0.00003755,-0.00002076,-0.00002796,-0.00000
 557,0.00001284,0.00026021,0.00002803,-0.00001766,-0.00005481,-0.000026
 37,-0.00003543,0.00003211,0.00006671,-0.00000105,0.00000372,0.00000094
 ,0.00000753,-0.00000990,-0.00001157,0.00000057,0.00000266,0.00000503,0
 .00000006,0.00000015,0.00000004,0.00000005,0.,0.00000012,-0.00000027,0
 .00000047,-0.00000122,0.00000005,0.00000011,0.,-0.00000010,-0.00000003
 ,-0.00000007,0.,0.00000005,-0.00000003,-0.00000008,0.00000005,-0.00000
 022,0.00003233,0.00002503,-0.00000955,-0.00000588,0.00002286,0.0000345
 1,-0.00000028,0.,0.00000053,0.00000005,-0.00000014,-0.00000008,0.00000
 036,0.00000002,-0.00000028,0.00000010,-0.00000012,-0.00000013,-0.00000
 018,0.00000003,0.00000003,0.00000016,0.00000015,-0.00000019,0.,0.,0.00
 000006,-0.00000002,0.00000006,0.00000010,0.00000004,0.00000003,-0.0000
 0004,0.00000004,-0.00000004,-0.00000004,0.00000003,0.,0.,0.00008870,-0
 .00138035,-0.00008645,-0.00134750,-0.00463954,0.00138683,0.00152000,-0
 .00398768,-0.00204676,-0.01801182,0.00325871,0.02155402,0.01682663,0.0
 0610350,-0.02019713,-0.01137328,-0.05872352,0.01335520,-0.00089976,-0.
 00002583,0.00110004,0.00086740,0.00010960,-0.00103238,0.00045003,0.001
 19114,-0.00046404,-0.00041313,0.00110914,0.00057666,0.01228075,0.05670
 319,-0.00001464,0.00005644,0.00004974,0.00007350,0.00000977,-0.0000749
 9,-0.00003190,-0.00009740,-0.00002333,-0.00006506,0.00001958,0.0000771
 0,0.00009394,-0.00005401,-0.00014057,0.00001275,-0.00000071,-0.0000066
 7,0.00000248,0.00000278,0.00000318,-0.00000052,0.00000334,0.00000067,-
 0.00000003,0.00000193,0.00000129,-0.00000855,0.00000195,0.00000377,-0.
 00000400,0.00000920,-0.00000132,-0.00017679,-0.00006630,0.00017706,0.0
 0020013,0.00012900,-0.00017462,-0.00013285,-0.00004380,0.00013109,-0.0
 0057881,0.00017926,-0.00029066,0.00013576,-0.00002681,-0.00013336,-0.0
 0007435,-0.00008794,-0.00002313,0.00000109,-0.00001840,0.00000054,0.00
 002859,0.00003862,0.00001503,-0.00001421,-0.00000604,-0.00001049,0.000
 00107,0.00000125,0.00000014,0.00000077,0.00000036,0.00000167,0.0000010
 4,-0.00000298,0.00000114,-0.00000029,0.00000164,0.00000110,0.00000035,
 0.00000090,-0.00000027,0.00000107,0.00000131,0.00000034,-0.00000035,0.
 00000016,-0.00000252,-0.00000083,-0.00003186,0.00003152,0.00003096,-0.
 00000662,0.00002206,-0.00000811,0.00000101,0.00001113,0.00000281,-0.00
 000231,-0.00000303,0.00000655,0.00000067,-0.00000574,0.00000130,-0.000
 00201,-0.00000160,-0.00000248,0.00000063,0.00000035,0.00000338,0.00000
 205,-0.00000386,-0.00000051,-0.00000035,0.00000132,-0.00000068,0.00000
 114,0.00000179,0.00000089,0.00000068,-0.00000084,0.00000080,-0.0000007
 7,-0.00000084,0.00000066,0.00000007,-0.00000026,-0.00069244,-0.0000704
 6,0.00002982,0.00321672,0.00196248,0.00356157,0.00341670,-0.00270321,0
 .00318846,0.00582598,-0.00228169,-0.00345452,0.00769414,0.00373107,-0.
 00547787,0.15169968,0.01335947,-0.21996969,0.00032058,-0.00007177,-0.0
 0031619,0.00038996,0.00018261,-0.00040355,-0.00238553,0.00001858,-0.00
 128625,-0.00246886,0.00005749,-0.00122814,-0.16650183,-0.01419999,0.22
 572246\\-0.00000049,0.00000042,-0.00000025,-0.00000087,0.00000009,-0.0
 0000018,-0.00000015,-0.00000012,-0.00000041,-0.00000006,-0.00000009,0.
 00000019,-0.00000031,-0.00000035,0.00000003,0.00000106,-0.00000007,0.0
 0000061,0.00000137,-0.00000013,0.00000089,0.00000156,-0.00000060,0.000
 00093,0.00000125,-0.00000101,0.00000067,0.00000065,-0.00000082,0.00000
 039,0.00000066,-0.00000037,0.00000036,0.00000018,-0.00000002,0.0000001
 1,0.00000010,-0.00000011,-0.00000024,0.00000022,0.00000013,0.,-0.00000
 035,0.00000033,0.00000010,-0.00000044,0.00000052,-0.00000043,-0.000000
 35,0.00000060,-0.00000025,-0.00000120,0.00000023,-0.00000075,-0.000000
 56,0.00000056,-0.00000029,-0.00000087,0.00000095,-0.00000047,-0.000001
 00,0.00000014,-0.00000068,0.00000041,-0.00000032,0.00000020,0.00000091
 ,0.00000045,0.00000062,0.00000167,0.00000012,0.00000109,0.00000189,-0.
 00000076,0.00000113,0.00000132,-0.00000132,0.00000070,0.00000047,-0.00
 000095,0.00000023,0.00000048,0.00000003,0.00000033,-0.00000095,0.00000
 053,-0.00000050,-0.00000039,-0.00000015,-0.00000023,0.00000006,-0.0000
 0023,-0.00000008,-0.00000076,-0.00000028,-0.00000058,-0.00000004,-0.00
 000039,-0.00000006,-0.00000079,-0.00000032,-0.00000062,-0.00000050,-0.
 00000037,-0.00000030,0.00000033,-0.00000020,0.00000020,-0.00000111,-0.
 00000029,-0.00000069,0.00000024,-0.00000041,0.00000014,-0.00000118,-0.
 00000038,-0.00000077,-0.00000051,-0.00000047,-0.00000034,-0.00000011,0
 .00000049,-0.00000017,0.00000015,0.00000042,0.00000025,-0.00000063,0.0
 0000048,-0.00000027,0.00000019,0.00000046,0.00000021,-0.00000064,0.000
 00056,-0.00000022,-0.00000012,0.00000060,-0.00000012,0.00000053,0.0000
 0046,0.00000035,-0.00000086,0.00000034,-0.00000056,0.00000055,0.000000
 50,0.00000036,-0.00000087,0.00000057,-0.00000052,-0.00000015,0.0000006
 1,-0.00000007\\\@
 The archive entry for this job was punched.


 WHAT, THEN, IS TIME?  IF NO ONE ASKS ME, I KNOW WHAT IT IS.
 IF I WISH TO EXPLAIN WHAT IT IS TO HIM WHO ASKS ME, I DO NOT KNOW.
                                   -- ST. AUGUSTINE (FIFTH CENTURY)
 Job cpu time:       0 days  0 hours  0 minutes 41.1 seconds.
 Elapsed time:       0 days  0 hours 35 minutes 36.8 seconds.
 File lengths (MBytes):  RWF=   1809 Int=      0 D2E=      0 Chk=     50 Scr=      1
 Normal termination of Gaussian 16 at Tue Feb  1 08:12:30 2022.
