 Entering Gaussian System, Link 0=/lustre1/prg/gaussian/bin/G16_C01_Linda9.2_SSE4/g16/g16
 Initial command:
 /lustre1/prg/gaussian/bin/G16_C01_Linda9.2_SSE4/g16/l1.exe "/lustre1/prg/webmo/data/webmo20/toliste/4416/scratch/Gau-1455995.inp" -scrdir="/lustre1/prg/webmo/data/webmo20/toliste/4416/scratch/"
 Default is to use a total of  12 processors:
                               12 via shared-memory
                                1 via Linda
 Entering Link 1 = /lustre1/prg/gaussian/bin/G16_C01_Linda9.2_SSE4/g16/l1.exe PID=   1455996.
  
 Copyright (c) 1988-2019, Gaussian, Inc.  All Rights Reserved.
  
 This is part of the Gaussian(R) 16 program.  It is based on
 the Gaussian(R) 09 system (copyright 2009, Gaussian, Inc.),
 the Gaussian(R) 03 system (copyright 2003, Gaussian, Inc.),
 the Gaussian(R) 98 system (copyright 1998, Gaussian, Inc.),
 the Gaussian(R) 94 system (copyright 1995, Gaussian, Inc.),
 the Gaussian 92(TM) system (copyright 1992, Gaussian, Inc.),
 the Gaussian 90(TM) system (copyright 1990, Gaussian, Inc.),
 the Gaussian 88(TM) system (copyright 1988, Gaussian, Inc.),
 the Gaussian 86(TM) system (copyright 1986, Carnegie Mellon
 University), and the Gaussian 82(TM) system (copyright 1983,
 Carnegie Mellon University). Gaussian is a federally registered
 trademark of Gaussian, Inc.
  
 This software contains proprietary and confidential information,
 including trade secrets, belonging to Gaussian, Inc.
  
 This software is provided under written license and may be
 used, copied, transmitted, or stored only in accord with that
 written license.
  
 The following legend is applicable only to US Government
 contracts under FAR:
  
                    RESTRICTED RIGHTS LEGEND
  
 Use, reproduction and disclosure by the US Government is
 subject to restrictions as set forth in subparagraphs (a)
 and (c) of the Commercial Computer Software - Restricted
 Rights clause in FAR 52.227-19.
  
 Gaussian, Inc.
 340 Quinnipiac St., Bldg. 40, Wallingford CT 06492
  
  
 ---------------------------------------------------------------
 Warning -- This program may not be used in any manner that
 competes with the business of Gaussian, Inc. or will provide
 assistance to any competitor of Gaussian, Inc.  The licensee
 of this program is prohibited from giving any competitor of
 Gaussian, Inc. access to this program.  By using this program,
 the user acknowledges that Gaussian, Inc. is engaged in the
 business of creating and licensing software in the field of
 computational chemistry and represents and warrants to the
 licensee that it is not a competitor of Gaussian, Inc. and that
 it will not use this program in any manner prohibited above.
 ---------------------------------------------------------------
  

 Cite this work as:
 Gaussian 16, Revision C.01,
 M. J. Frisch, G. W. Trucks, H. B. Schlegel, G. E. Scuseria, 
 M. A. Robb, J. R. Cheeseman, G. Scalmani, V. Barone, 
 G. A. Petersson, H. Nakatsuji, X. Li, M. Caricato, A. V. Marenich, 
 J. Bloino, B. G. Janesko, R. Gomperts, B. Mennucci, H. P. Hratchian, 
 J. V. Ortiz, A. F. Izmaylov, J. L. Sonnenberg, D. Williams-Young, 
 F. Ding, F. Lipparini, F. Egidi, J. Goings, B. Peng, A. Petrone, 
 T. Henderson, D. Ranasinghe, V. G. Zakrzewski, J. Gao, N. Rega, 
 G. Zheng, W. Liang, M. Hada, M. Ehara, K. Toyota, R. Fukuda, 
 J. Hasegawa, M. Ishida, T. Nakajima, Y. Honda, O. Kitao, H. Nakai, 
 T. Vreven, K. Throssell, J. A. Montgomery, Jr., J. E. Peralta, 
 F. Ogliaro, M. J. Bearpark, J. J. Heyd, E. N. Brothers, K. N. Kudin, 
 V. N. Staroverov, T. A. Keith, R. Kobayashi, J. Normand, 
 K. Raghavachari, A. P. Rendell, J. C. Burant, S. S. Iyengar, 
 J. Tomasi, M. Cossi, J. M. Millam, M. Klene, C. Adamo, R. Cammi, 
 J. W. Ochterski, R. L. Martin, K. Morokuma, O. Farkas, 
 J. B. Foresman, and D. J. Fox, Gaussian, Inc., Wallingford CT, 2019.
 
 ******************************************
 Gaussian 16:  ES64L-G16RevC.01  3-Jul-2019
                 1-Feb-2022 
 ******************************************
 %LindaWorkers=fizika49,fizika50,fizika51,fizika52,fizika53,fizika54,fizika55,fiz
 ika56
 %chk=bodipy.chk
 SetLPE:  input flags=" -opt "Tsnet.Node.lindarsharg: ssh" "
 SetLPE:    new flags=" -opt "Tsnet.Node.lindarsharg: ssh" -opt 'Tsnet.Node.lindarsharg: ssh'  -nodelist 'fizika49.fizika.bullx fizika50.fizika.bullx fizika51.fizika.bullx fizika52.fizika.bullx fizika53.fizika.bullx fizika54.fizika.bullx fizika55.fizika.bullx fizika56.fizika.bullx' -env GAUSS_MDEF=11408506880 -env GAUSS_EXEDIR="/lustre1/prg/gaussian/bin/G16_C01_Linda9.2_SSE4/g16/bsd:/lustre1/prg/gaussian/bin/G16_C01_Linda9.2_SSE4/g16/private:/lustre1/prg/gaussian/bin/G16_C01_Linda9.2_SSE4/g16""
 Will use up to    8 processors via Linda.
 ----------------------------------------------------------------------
 #p m062x cc-pvdz scrf=(cpcm,solvent=TetraHydroFuran) opt=(tight,calcfc
 ) freq nosymm int=ultrafine fchk
 ----------------------------------------------------------------------
 1/7=10,10=4,18=20,19=15,26=6,38=1/1,3;
 2/9=110,12=2,15=1,17=6,18=5,40=1/2;
 3/5=16,11=2,25=1,30=1,70=2101,71=2,72=20,74=-55,75=-5,140=1/1,2,3;
 4//1;
 5/5=2,38=5,53=20/2;
 8/6=4,10=90,11=11/1;
 11/6=1,8=1,9=11,15=111,16=1,31=1/1,2,10;
 10/6=1,13=1,31=1/2;
 6/7=2,8=2,9=2,10=2,28=1/1;
 7/10=1,25=1,30=1/1,2,3,16;
 1/7=10,10=4,18=20,19=15,26=6/3(2);
 2/9=110,15=1/2;
 99//99;
 2/9=110,15=1/2;
 3/5=16,11=2,25=1,30=1,70=2105,71=1,72=20,74=-55,75=-5/1,2,3;
 4/5=5,16=3,69=1/1;
 5/5=2,38=5,53=20/2;
 7/30=1/1,2,3,16;
 1/7=10,18=20,19=15,26=6/3(-5);
 2/9=110,15=1/2;
 6/7=2,8=2,9=2,10=2,19=2,28=1/1;
 99/9=1/99;
 Leave Link    1 at Tue Feb  1 12:11:19 2022, MaxMem=           0 cpu:               1.3 elap:               0.1
 (Enter /lustre1/prg/gaussian/bin/G16_C01_Linda9.2_SSE4/g16/l101.exe)
 --------------------------------------
 BDP-PP-phenyl, optimized S0 in toluene
 --------------------------------------
 Symbolic Z-matrix:
 Charge =  0 Multiplicity = 1
 N                     12.39581  -9.43047  -1.15056 
 C                     13.16878  -9.79628  -2.1725 
 C                     14.05557  -8.74748  -2.5266 
 C                     13.76915  -7.69799  -1.65404 
 C                     12.73854  -8.13438  -0.7871 
 C                     11.50525  -5.11081   0.77483 
 C                     11.87304  -3.81765   1.13784 
 C                     13.20848  -3.51879   1.4089 
 C                     14.17896  -4.51621   1.31041 
 C                     13.81942  -5.80797   0.93432 
 C                     12.47776  -6.11559   0.66545 
 C                     12.0868  -7.48754   0.27582 
 C                     11.0696  -8.15043   0.98221 
 C                     10.3545  -7.77864   2.14614 
 C                     9.52116  -8.84442   2.48425 
 C                     9.76185  -9.84664   1.5097 
 N                     10.67226  -9.43293   0.62893 
 F                     11.58821  -11.51067  -0.20317 
 B                     11.1845  -10.24286  -0.59936 
 F                     10.19173  -10.32066  -1.57008 
 H                     13.04549  -10.77447  -2.63299 
 H                     14.24571  -6.72228  -1.62079 
 H                     10.46396  -5.345     0.54926 
 H                     11.11241  -3.03959   1.20679 
 H                     13.49343  -2.50685   1.69856 
 H                     15.22226  -4.28938   1.53118 
 H                     14.57368  -6.59365   0.87378 
 H                     10.48369  -6.84625   2.68893 
 H                     9.30825  -10.83073   1.41109 
 C                     15.05147  -8.7853   -3.60914 
 C                     15.52814  -7.59782  -4.18336 
 C                     15.54458  -10.0073  -4.08947 
 C                     16.47218  -7.63155  -5.20612 
 C                     16.48434  -10.0403  -5.11694 
 C                     16.95362  -8.85304  -5.67885 
 H                     15.14086  -6.63831  -3.83677 
 H                     15.20244  -10.94271  -3.6436 
 H                     16.82842  -6.69758  -5.64237 
 H                     16.85707  -11.00041  -5.47573 
 H                     17.69054  -8.87921  -6.48211 
 C                     8.58386  -8.94185   3.61427 
 C                     8.07249  -7.78421   4.2187 
 C                     8.18352  -10.19066   4.11165 
 C                     7.18987  -7.87279   5.29191 
 C                     7.29549  -10.2784   5.18098 
 C                     6.79592  -9.12038   5.77694 
 H                     8.35648  -6.8044    3.83115 
 H                     8.58439  -11.10417   3.66934 
 H                     6.80073  -6.96132   5.74723 
 H                     6.99756  -11.25855   5.55508 
 H                     6.10196  -9.18962   6.61514 
 
 ITRead=  0  0  0  0  0  0  0  0  0  0  0  0  0  0  0  0  0  0  0  0
 ITRead=  0  0  0  0  0  0  0  0  0  0  0  0  0  0  0  0  0  0  0  0
 ITRead=  0  0  0  0  0  0  0  0  0  0  0
 MicOpt= -1 -1 -1 -1 -1 -1 -1 -1 -1 -1 -1 -1 -1 -1 -1 -1 -1 -1 -1 -1
 MicOpt= -1 -1 -1 -1 -1 -1 -1 -1 -1 -1 -1 -1 -1 -1 -1 -1 -1 -1 -1 -1
 MicOpt= -1 -1 -1 -1 -1 -1 -1 -1 -1 -1 -1
 NAtoms=     51 NQM=       51 NQMF=       0 NMMI=      0 NMMIF=      0
                NMic=       0 NMicF=      0.
                    Isotopes and Nuclear Properties:
 (Nuclear quadrupole moments (NQMom) in fm**2, nuclear magnetic moments (NMagM)
  in nuclear magnetons)

  Atom         1           2           3           4           5           6           7           8           9          10
 IAtWgt=          14          12          12          12          12          12          12          12          12          12
 AtmWgt=  14.0030740  12.0000000  12.0000000  12.0000000  12.0000000  12.0000000  12.0000000  12.0000000  12.0000000  12.0000000
 NucSpn=           2           0           0           0           0           0           0           0           0           0
 AtZEff=  -0.0000000  -0.0000000  -0.0000000  -0.0000000  -0.0000000  -0.0000000  -0.0000000  -0.0000000  -0.0000000  -0.0000000
 NQMom=    2.0440000   0.0000000   0.0000000   0.0000000   0.0000000   0.0000000   0.0000000   0.0000000   0.0000000   0.0000000
 NMagM=    0.4037610   0.0000000   0.0000000   0.0000000   0.0000000   0.0000000   0.0000000   0.0000000   0.0000000   0.0000000
 AtZNuc=   7.0000000   6.0000000   6.0000000   6.0000000   6.0000000   6.0000000   6.0000000   6.0000000   6.0000000   6.0000000

  Atom        11          12          13          14          15          16          17          18          19          20
 IAtWgt=          12          12          12          12          12          12          14          19          11          19
 AtmWgt=  12.0000000  12.0000000  12.0000000  12.0000000  12.0000000  12.0000000  14.0030740  18.9984033  11.0093053  18.9984033
 NucSpn=           0           0           0           0           0           0           2           1           3           1
 AtZEff=  -0.0000000  -0.0000000  -0.0000000  -0.0000000  -0.0000000  -0.0000000  -0.0000000  -0.0000000  -0.0000000  -0.0000000
 NQMom=    0.0000000   0.0000000   0.0000000   0.0000000   0.0000000   0.0000000   2.0440000   0.0000000   4.0590000   0.0000000
 NMagM=    0.0000000   0.0000000   0.0000000   0.0000000   0.0000000   0.0000000   0.4037610   2.6288670   2.6886370   2.6288670
 AtZNuc=   6.0000000   6.0000000   6.0000000   6.0000000   6.0000000   6.0000000   7.0000000   9.0000000   5.0000000   9.0000000

  Atom        21          22          23          24          25          26          27          28          29          30
 IAtWgt=           1           1           1           1           1           1           1           1           1          12
 AtmWgt=   1.0078250   1.0078250   1.0078250   1.0078250   1.0078250   1.0078250   1.0078250   1.0078250   1.0078250  12.0000000
 NucSpn=           1           1           1           1           1           1           1           1           1           0
 AtZEff=  -0.0000000  -0.0000000  -0.0000000  -0.0000000  -0.0000000  -0.0000000  -0.0000000  -0.0000000  -0.0000000  -0.0000000
 NQMom=    0.0000000   0.0000000   0.0000000   0.0000000   0.0000000   0.0000000   0.0000000   0.0000000   0.0000000   0.0000000
 NMagM=    2.7928460   2.7928460   2.7928460   2.7928460   2.7928460   2.7928460   2.7928460   2.7928460   2.7928460   0.0000000
 AtZNuc=   1.0000000   1.0000000   1.0000000   1.0000000   1.0000000   1.0000000   1.0000000   1.0000000   1.0000000   6.0000000

  Atom        31          32          33          34          35          36          37          38          39          40
 IAtWgt=          12          12          12          12          12           1           1           1           1           1
 AtmWgt=  12.0000000  12.0000000  12.0000000  12.0000000  12.0000000   1.0078250   1.0078250   1.0078250   1.0078250   1.0078250
 NucSpn=           0           0           0           0           0           1           1           1           1           1
 AtZEff=  -0.0000000  -0.0000000  -0.0000000  -0.0000000  -0.0000000  -0.0000000  -0.0000000  -0.0000000  -0.0000000  -0.0000000
 NQMom=    0.0000000   0.0000000   0.0000000   0.0000000   0.0000000   0.0000000   0.0000000   0.0000000   0.0000000   0.0000000
 NMagM=    0.0000000   0.0000000   0.0000000   0.0000000   0.0000000   2.7928460   2.7928460   2.7928460   2.7928460   2.7928460
 AtZNuc=   6.0000000   6.0000000   6.0000000   6.0000000   6.0000000   1.0000000   1.0000000   1.0000000   1.0000000   1.0000000

  Atom        41          42          43          44          45          46          47          48          49          50
 IAtWgt=          12          12          12          12          12          12           1           1           1           1
 AtmWgt=  12.0000000  12.0000000  12.0000000  12.0000000  12.0000000  12.0000000   1.0078250   1.0078250   1.0078250   1.0078250
 NucSpn=           0           0           0           0           0           0           1           1           1           1
 AtZEff=  -0.0000000  -0.0000000  -0.0000000  -0.0000000  -0.0000000  -0.0000000  -0.0000000  -0.0000000  -0.0000000  -0.0000000
 NQMom=    0.0000000   0.0000000   0.0000000   0.0000000   0.0000000   0.0000000   0.0000000   0.0000000   0.0000000   0.0000000
 NMagM=    0.0000000   0.0000000   0.0000000   0.0000000   0.0000000   0.0000000   2.7928460   2.7928460   2.7928460   2.7928460
 AtZNuc=   6.0000000   6.0000000   6.0000000   6.0000000   6.0000000   6.0000000   1.0000000   1.0000000   1.0000000   1.0000000

  Atom        51
 IAtWgt=           1
 AtmWgt=   1.0078250
 NucSpn=           1
 AtZEff=  -0.0000000
 NQMom=    0.0000000
 NMagM=    2.7928460
 AtZNuc=   1.0000000
 Leave Link  101 at Tue Feb  1 12:11:20 2022, MaxMem= 11408506880 cpu:               6.7 elap:               0.6
 (Enter /lustre1/prg/gaussian/bin/G16_C01_Linda9.2_SSE4/g16/l103.exe)

 GradGradGradGradGradGradGradGradGradGradGradGradGradGradGradGradGradGrad
 Berny optimization.
 Initialization pass.
                           ----------------------------
                           !    Initial Parameters    !
                           ! (Angstroms and Degrees)  !
 --------------------------                            --------------------------
 ! Name  Definition              Value          Derivative Info.                !
 --------------------------------------------------------------------------------
 ! R1    R(1,2)                  1.3325         calculate D2E/DX2 analytically  !
 ! R2    R(1,5)                  1.389          calculate D2E/DX2 analytically  !
 ! R3    R(1,19)                 1.5592         calculate D2E/DX2 analytically  !
 ! R4    R(2,3)                  1.4184         calculate D2E/DX2 analytically  !
 ! R5    R(2,21)                 1.0882         calculate D2E/DX2 analytically  !
 ! R6    R(3,4)                  1.3946         calculate D2E/DX2 analytically  !
 ! R7    R(3,30)                 1.4714         calculate D2E/DX2 analytically  !
 ! R8    R(4,5)                  1.4157         calculate D2E/DX2 analytically  !
 ! R9    R(4,22)                 1.0864         calculate D2E/DX2 analytically  !
 ! R10   R(5,12)                 1.4046         calculate D2E/DX2 analytically  !
 ! R11   R(6,7)                  1.3926         calculate D2E/DX2 analytically  !
 ! R12   R(6,11)                 1.4026         calculate D2E/DX2 analytically  !
 ! R13   R(6,23)                 1.0909         calculate D2E/DX2 analytically  !
 ! R14   R(7,8)                  1.3951         calculate D2E/DX2 analytically  !
 ! R15   R(7,24)                 1.0903         calculate D2E/DX2 analytically  !
 ! R16   R(8,9)                  1.3951         calculate D2E/DX2 analytically  !
 ! R17   R(8,25)                 1.0905         calculate D2E/DX2 analytically  !
 ! R18   R(9,10)                 1.3926         calculate D2E/DX2 analytically  !
 ! R19   R(9,26)                 1.0903         calculate D2E/DX2 analytically  !
 ! R20   R(10,11)                1.4025         calculate D2E/DX2 analytically  !
 ! R21   R(10,27)                1.0908         calculate D2E/DX2 analytically  !
 ! R22   R(11,12)                1.4788         calculate D2E/DX2 analytically  !
 ! R23   R(12,13)                1.4047         calculate D2E/DX2 analytically  !
 ! R24   R(13,14)                1.4157         calculate D2E/DX2 analytically  !
 ! R25   R(13,17)                1.3883         calculate D2E/DX2 analytically  !
 ! R26   R(14,15)                1.3945         calculate D2E/DX2 analytically  !
 ! R27   R(14,28)                1.0866         calculate D2E/DX2 analytically  !
 ! R28   R(15,16)                1.4185         calculate D2E/DX2 analytically  !
 ! R29   R(15,41)                1.4714         calculate D2E/DX2 analytically  !
 ! R30   R(16,17)                1.3326         calculate D2E/DX2 analytically  !
 ! R31   R(16,29)                1.0881         calculate D2E/DX2 analytically  !
 ! R32   R(17,19)                1.5579         calculate D2E/DX2 analytically  !
 ! R33   R(18,19)                1.3883         calculate D2E/DX2 analytically  !
 ! R34   R(19,20)                1.3907         calculate D2E/DX2 analytically  !
 ! R35   R(30,31)                1.4025         calculate D2E/DX2 analytically  !
 ! R36   R(30,32)                1.4026         calculate D2E/DX2 analytically  !
 ! R37   R(31,33)                1.3923         calculate D2E/DX2 analytically  !
 ! R38   R(31,36)                1.0912         calculate D2E/DX2 analytically  !
 ! R39   R(32,34)                1.3928         calculate D2E/DX2 analytically  !
 ! R40   R(32,37)                1.0913         calculate D2E/DX2 analytically  !
 ! R41   R(33,35)                1.3955         calculate D2E/DX2 analytically  !
 ! R42   R(33,38)                1.0907         calculate D2E/DX2 analytically  !
 ! R43   R(34,35)                1.3948         calculate D2E/DX2 analytically  !
 ! R44   R(34,39)                1.0906         calculate D2E/DX2 analytically  !
 ! R45   R(35,40)                1.0904         calculate D2E/DX2 analytically  !
 ! R46   R(41,42)                1.4025         calculate D2E/DX2 analytically  !
 ! R47   R(41,43)                1.4026         calculate D2E/DX2 analytically  !
 ! R48   R(42,44)                1.3924         calculate D2E/DX2 analytically  !
 ! R49   R(42,47)                1.0913         calculate D2E/DX2 analytically  !
 ! R50   R(43,45)                1.3927         calculate D2E/DX2 analytically  !
 ! R51   R(43,48)                1.0913         calculate D2E/DX2 analytically  !
 ! R52   R(44,46)                1.3953         calculate D2E/DX2 analytically  !
 ! R53   R(44,49)                1.0907         calculate D2E/DX2 analytically  !
 ! R54   R(45,46)                1.3949         calculate D2E/DX2 analytically  !
 ! R55   R(45,50)                1.0906         calculate D2E/DX2 analytically  !
 ! R56   R(46,51)                1.0904         calculate D2E/DX2 analytically  !
 ! A1    A(2,1,5)              108.2824         calculate D2E/DX2 analytically  !
 ! A2    A(2,1,19)             125.361          calculate D2E/DX2 analytically  !
 ! A3    A(5,1,19)             125.8283         calculate D2E/DX2 analytically  !
 ! A4    A(1,2,3)              110.5571         calculate D2E/DX2 analytically  !
 ! A5    A(1,2,21)             120.3709         calculate D2E/DX2 analytically  !
 ! A6    A(3,2,21)             129.0428         calculate D2E/DX2 analytically  !
 ! A7    A(2,3,4)              105.7749         calculate D2E/DX2 analytically  !
 ! A8    A(2,3,30)             126.003          calculate D2E/DX2 analytically  !
 ! A9    A(4,3,30)             128.2185         calculate D2E/DX2 analytically  !
 ! A10   A(3,4,5)              107.4994         calculate D2E/DX2 analytically  !
 ! A11   A(3,4,22)             127.2253         calculate D2E/DX2 analytically  !
 ! A12   A(5,4,22)             125.2713         calculate D2E/DX2 analytically  !
 ! A13   A(1,5,4)              107.8792         calculate D2E/DX2 analytically  !
 ! A14   A(1,5,12)             120.8783         calculate D2E/DX2 analytically  !
 ! A15   A(4,5,12)             131.2419         calculate D2E/DX2 analytically  !
 ! A16   A(7,6,11)             120.1606         calculate D2E/DX2 analytically  !
 ! A17   A(7,6,23)             120.355          calculate D2E/DX2 analytically  !
 ! A18   A(11,6,23)            119.4669         calculate D2E/DX2 analytically  !
 ! A19   A(6,7,8)              120.1589         calculate D2E/DX2 analytically  !
 ! A20   A(6,7,24)             119.6642         calculate D2E/DX2 analytically  !
 ! A21   A(8,7,24)             120.1766         calculate D2E/DX2 analytically  !
 ! A22   A(7,8,9)              119.9347         calculate D2E/DX2 analytically  !
 ! A23   A(7,8,25)             120.0368         calculate D2E/DX2 analytically  !
 ! A24   A(9,8,25)             120.0284         calculate D2E/DX2 analytically  !
 ! A25   A(8,9,10)             120.1744         calculate D2E/DX2 analytically  !
 ! A26   A(8,9,26)             120.1734         calculate D2E/DX2 analytically  !
 ! A27   A(10,9,26)            119.6518         calculate D2E/DX2 analytically  !
 ! A28   A(9,10,11)            120.1463         calculate D2E/DX2 analytically  !
 ! A29   A(9,10,27)            120.3035         calculate D2E/DX2 analytically  !
 ! A30   A(11,10,27)           119.5282         calculate D2E/DX2 analytically  !
 ! A31   A(6,11,10)            119.4198         calculate D2E/DX2 analytically  !
 ! A32   A(6,11,12)            120.1213         calculate D2E/DX2 analytically  !
 ! A33   A(10,11,12)           120.4583         calculate D2E/DX2 analytically  !
 ! A34   A(5,12,11)            120.2606         calculate D2E/DX2 analytically  !
 ! A35   A(5,12,13)            119.9495         calculate D2E/DX2 analytically  !
 ! A36   A(11,12,13)           119.7861         calculate D2E/DX2 analytically  !
 ! A37   A(12,13,14)           130.9416         calculate D2E/DX2 analytically  !
 ! A38   A(12,13,17)           121.0121         calculate D2E/DX2 analytically  !
 ! A39   A(14,13,17)           107.8925         calculate D2E/DX2 analytically  !
 ! A40   A(13,14,15)           107.486          calculate D2E/DX2 analytically  !
 ! A41   A(13,14,28)           125.1677         calculate D2E/DX2 analytically  !
 ! A42   A(15,14,28)           127.2829         calculate D2E/DX2 analytically  !
 ! A43   A(14,15,16)           105.784          calculate D2E/DX2 analytically  !
 ! A44   A(14,15,41)           128.1327         calculate D2E/DX2 analytically  !
 ! A45   A(16,15,41)           126.0823         calculate D2E/DX2 analytically  !
 ! A46   A(15,16,17)           110.5285         calculate D2E/DX2 analytically  !
 ! A47   A(15,16,29)           129.0904         calculate D2E/DX2 analytically  !
 ! A48   A(17,16,29)           120.3774         calculate D2E/DX2 analytically  !
 ! A49   A(13,17,16)           108.3081         calculate D2E/DX2 analytically  !
 ! A50   A(13,17,19)           125.9286         calculate D2E/DX2 analytically  !
 ! A51   A(16,17,19)           125.7566         calculate D2E/DX2 analytically  !
 ! A52   A(1,19,17)            105.2646         calculate D2E/DX2 analytically  !
 ! A53   A(1,19,18)            110.5359         calculate D2E/DX2 analytically  !
 ! A54   A(1,19,20)            109.6936         calculate D2E/DX2 analytically  !
 ! A55   A(17,19,18)           110.2056         calculate D2E/DX2 analytically  !
 ! A56   A(17,19,20)           110.1632         calculate D2E/DX2 analytically  !
 ! A57   A(18,19,20)           110.8374         calculate D2E/DX2 analytically  !
 ! A58   A(3,30,31)            120.6295         calculate D2E/DX2 analytically  !
 ! A59   A(3,30,32)            120.8171         calculate D2E/DX2 analytically  !
 ! A60   A(31,30,32)           118.5534         calculate D2E/DX2 analytically  !
 ! A61   A(30,31,33)           120.7109         calculate D2E/DX2 analytically  !
 ! A62   A(30,31,36)           119.5919         calculate D2E/DX2 analytically  !
 ! A63   A(33,31,36)           119.6876         calculate D2E/DX2 analytically  !
 ! A64   A(30,32,34)           120.6968         calculate D2E/DX2 analytically  !
 ! A65   A(30,32,37)           119.7808         calculate D2E/DX2 analytically  !
 ! A66   A(34,32,37)           119.5143         calculate D2E/DX2 analytically  !
 ! A67   A(31,33,35)           120.2645         calculate D2E/DX2 analytically  !
 ! A68   A(31,33,38)           119.6412         calculate D2E/DX2 analytically  !
 ! A69   A(35,33,38)           120.0926         calculate D2E/DX2 analytically  !
 ! A70   A(32,34,35)           120.2666         calculate D2E/DX2 analytically  !
 ! A71   A(32,34,39)           119.6122         calculate D2E/DX2 analytically  !
 ! A72   A(35,34,39)           120.1198         calculate D2E/DX2 analytically  !
 ! A73   A(33,35,34)           119.5067         calculate D2E/DX2 analytically  !
 ! A74   A(33,35,40)           120.2467         calculate D2E/DX2 analytically  !
 ! A75   A(34,35,40)           120.2466         calculate D2E/DX2 analytically  !
 ! A76   A(15,41,42)           120.5707         calculate D2E/DX2 analytically  !
 ! A77   A(15,41,43)           120.8731         calculate D2E/DX2 analytically  !
 ! A78   A(42,41,43)           118.5562         calculate D2E/DX2 analytically  !
 ! A79   A(41,42,44)           120.7177         calculate D2E/DX2 analytically  !
 ! A80   A(41,42,47)           119.5494         calculate D2E/DX2 analytically  !
 ! A81   A(44,42,47)           119.7238         calculate D2E/DX2 analytically  !
 ! A82   A(41,43,45)           120.6883         calculate D2E/DX2 analytically  !
 ! A83   A(41,43,48)           119.7853         calculate D2E/DX2 analytically  !
 ! A84   A(45,43,48)           119.5174         calculate D2E/DX2 analytically  !
 ! A85   A(42,44,46)           120.2511         calculate D2E/DX2 analytically  !
 ! A86   A(42,44,49)           119.6559         calculate D2E/DX2 analytically  !
 ! A87   A(46,44,49)           120.0911         calculate D2E/DX2 analytically  !
 ! A88   A(43,45,46)           120.2701         calculate D2E/DX2 analytically  !
 ! A89   A(43,45,50)           119.6146         calculate D2E/DX2 analytically  !
 ! A90   A(46,45,50)           120.1139         calculate D2E/DX2 analytically  !
 ! A91   A(44,46,45)           119.5154         calculate D2E/DX2 analytically  !
 ! A92   A(44,46,51)           120.2435         calculate D2E/DX2 analytically  !
 ! A93   A(45,46,51)           120.2411         calculate D2E/DX2 analytically  !
 ! D1    D(5,1,2,3)             -0.1097         calculate D2E/DX2 analytically  !
 ! D2    D(5,1,2,21)          -178.3137         calculate D2E/DX2 analytically  !
 ! D3    D(19,1,2,3)           171.9358         calculate D2E/DX2 analytically  !
 ! D4    D(19,1,2,21)           -6.2682         calculate D2E/DX2 analytically  !
 ! D5    D(2,1,5,4)              0.5961         calculate D2E/DX2 analytically  !
 ! D6    D(2,1,5,12)          -179.6415         calculate D2E/DX2 analytically  !
 ! D7    D(19,1,5,4)          -171.4025         calculate D2E/DX2 analytically  !
 ! D8    D(19,1,5,12)            8.3599         calculate D2E/DX2 analytically  !
 ! D9    D(2,1,19,17)          177.0853         calculate D2E/DX2 analytically  !
 ! D10   D(2,1,19,18)           58.1025         calculate D2E/DX2 analytically  !
 ! D11   D(2,1,19,20)          -64.4134         calculate D2E/DX2 analytically  !
 ! D12   D(5,1,19,17)          -12.2417         calculate D2E/DX2 analytically  !
 ! D13   D(5,1,19,18)         -131.2245         calculate D2E/DX2 analytically  !
 ! D14   D(5,1,19,20)          106.2596         calculate D2E/DX2 analytically  !
 ! D15   D(1,2,3,4)             -0.4224         calculate D2E/DX2 analytically  !
 ! D16   D(1,2,3,30)          -179.7701         calculate D2E/DX2 analytically  !
 ! D17   D(21,2,3,4)           177.5824         calculate D2E/DX2 analytically  !
 ! D18   D(21,2,3,30)           -1.7653         calculate D2E/DX2 analytically  !
 ! D19   D(2,3,4,5)              0.77           calculate D2E/DX2 analytically  !
 ! D20   D(2,3,4,22)          -179.9349         calculate D2E/DX2 analytically  !
 ! D21   D(30,3,4,5)          -179.9016         calculate D2E/DX2 analytically  !
 ! D22   D(30,3,4,22)           -0.6065         calculate D2E/DX2 analytically  !
 ! D23   D(2,3,30,31)          157.1071         calculate D2E/DX2 analytically  !
 ! D24   D(2,3,30,32)          -22.8841         calculate D2E/DX2 analytically  !
 ! D25   D(4,3,30,31)          -22.094          calculate D2E/DX2 analytically  !
 ! D26   D(4,3,30,32)          157.9149         calculate D2E/DX2 analytically  !
 ! D27   D(3,4,5,1)             -0.8563         calculate D2E/DX2 analytically  !
 ! D28   D(3,4,5,12)           179.415          calculate D2E/DX2 analytically  !
 ! D29   D(22,4,5,1)           179.8312         calculate D2E/DX2 analytically  !
 ! D30   D(22,4,5,12)            0.1025         calculate D2E/DX2 analytically  !
 ! D31   D(1,5,12,11)          178.9977         calculate D2E/DX2 analytically  !
 ! D32   D(1,5,12,13)           -0.2915         calculate D2E/DX2 analytically  !
 ! D33   D(4,5,12,11)           -1.3031         calculate D2E/DX2 analytically  !
 ! D34   D(4,5,12,13)          179.4076         calculate D2E/DX2 analytically  !
 ! D35   D(11,6,7,8)            -0.7124         calculate D2E/DX2 analytically  !
 ! D36   D(11,6,7,24)          179.1422         calculate D2E/DX2 analytically  !
 ! D37   D(23,6,7,8)          -179.1832         calculate D2E/DX2 analytically  !
 ! D38   D(23,6,7,24)            0.6714         calculate D2E/DX2 analytically  !
 ! D39   D(7,6,11,10)            0.4706         calculate D2E/DX2 analytically  !
 ! D40   D(7,6,11,12)         -179.8104         calculate D2E/DX2 analytically  !
 ! D41   D(23,6,11,10)         178.955          calculate D2E/DX2 analytically  !
 ! D42   D(23,6,11,12)          -1.3261         calculate D2E/DX2 analytically  !
 ! D43   D(6,7,8,9)              0.2837         calculate D2E/DX2 analytically  !
 ! D44   D(6,7,8,25)          -179.6488         calculate D2E/DX2 analytically  !
 ! D45   D(24,7,8,9)          -179.5702         calculate D2E/DX2 analytically  !
 ! D46   D(24,7,8,25)            0.4973         calculate D2E/DX2 analytically  !
 ! D47   D(7,8,9,10)             0.3865         calculate D2E/DX2 analytically  !
 ! D48   D(7,8,9,26)          -179.3789         calculate D2E/DX2 analytically  !
 ! D49   D(25,8,9,10)         -179.681          calculate D2E/DX2 analytically  !
 ! D50   D(25,8,9,26)            0.5535         calculate D2E/DX2 analytically  !
 ! D51   D(8,9,10,11)           -0.6263         calculate D2E/DX2 analytically  !
 ! D52   D(8,9,10,27)         -178.9137         calculate D2E/DX2 analytically  !
 ! D53   D(26,9,10,11)         179.1404         calculate D2E/DX2 analytically  !
 ! D54   D(26,9,10,27)           0.853          calculate D2E/DX2 analytically  !
 ! D55   D(9,10,11,6)            0.1977         calculate D2E/DX2 analytically  !
 ! D56   D(9,10,11,12)        -179.5203         calculate D2E/DX2 analytically  !
 ! D57   D(27,10,11,6)         178.4984         calculate D2E/DX2 analytically  !
 ! D58   D(27,10,11,12)         -1.2196         calculate D2E/DX2 analytically  !
 ! D59   D(6,11,12,5)          127.783          calculate D2E/DX2 analytically  !
 ! D60   D(6,11,12,13)         -52.9266         calculate D2E/DX2 analytically  !
 ! D61   D(10,11,12,5)         -52.501          calculate D2E/DX2 analytically  !
 ! D62   D(10,11,12,13)        126.7894         calculate D2E/DX2 analytically  !
 ! D63   D(5,12,13,14)         173.4905         calculate D2E/DX2 analytically  !
 ! D64   D(5,12,13,17)          -1.4198         calculate D2E/DX2 analytically  !
 ! D65   D(11,12,13,14)         -5.8021         calculate D2E/DX2 analytically  !
 ! D66   D(11,12,13,17)        179.2875         calculate D2E/DX2 analytically  !
 ! D67   D(12,13,14,15)       -175.701          calculate D2E/DX2 analytically  !
 ! D68   D(12,13,14,28)          1.5771         calculate D2E/DX2 analytically  !
 ! D69   D(17,13,14,15)         -0.2837         calculate D2E/DX2 analytically  !
 ! D70   D(17,13,14,28)        176.9944         calculate D2E/DX2 analytically  !
 ! D71   D(12,13,17,16)        176.0999         calculate D2E/DX2 analytically  !
 ! D72   D(12,13,17,19)         -4.8001         calculate D2E/DX2 analytically  !
 ! D73   D(14,13,17,16)          0.138          calculate D2E/DX2 analytically  !
 ! D74   D(14,13,17,19)        179.238          calculate D2E/DX2 analytically  !
 ! D75   D(13,14,15,16)          0.3103         calculate D2E/DX2 analytically  !
 ! D76   D(13,14,15,41)        179.9539         calculate D2E/DX2 analytically  !
 ! D77   D(28,14,15,16)       -176.8931         calculate D2E/DX2 analytically  !
 ! D78   D(28,14,15,41)          2.7505         calculate D2E/DX2 analytically  !
 ! D79   D(14,15,16,17)         -0.2352         calculate D2E/DX2 analytically  !
 ! D80   D(14,15,16,29)       -179.5235         calculate D2E/DX2 analytically  !
 ! D81   D(41,15,16,17)       -179.8884         calculate D2E/DX2 analytically  !
 ! D82   D(41,15,16,29)          0.8234         calculate D2E/DX2 analytically  !
 ! D83   D(14,15,41,42)         23.1937         calculate D2E/DX2 analytically  !
 ! D84   D(14,15,41,43)       -156.7248         calculate D2E/DX2 analytically  !
 ! D85   D(16,15,41,42)       -157.2306         calculate D2E/DX2 analytically  !
 ! D86   D(16,15,41,43)         22.8509         calculate D2E/DX2 analytically  !
 ! D87   D(15,16,17,13)          0.0603         calculate D2E/DX2 analytically  !
 ! D88   D(15,16,17,19)       -179.0417         calculate D2E/DX2 analytically  !
 ! D89   D(29,16,17,13)        179.4199         calculate D2E/DX2 analytically  !
 ! D90   D(29,16,17,19)          0.318          calculate D2E/DX2 analytically  !
 ! D91   D(13,17,19,1)          10.466          calculate D2E/DX2 analytically  !
 ! D92   D(13,17,19,18)        129.6692         calculate D2E/DX2 analytically  !
 ! D93   D(13,17,19,20)       -107.7197         calculate D2E/DX2 analytically  !
 ! D94   D(16,17,19,1)        -170.587          calculate D2E/DX2 analytically  !
 ! D95   D(16,17,19,18)        -51.3838         calculate D2E/DX2 analytically  !
 ! D96   D(16,17,19,20)         71.2274         calculate D2E/DX2 analytically  !
 ! D97   D(3,30,31,33)         179.8858         calculate D2E/DX2 analytically  !
 ! D98   D(3,30,31,36)          -1.2425         calculate D2E/DX2 analytically  !
 ! D99   D(32,30,31,33)         -0.1228         calculate D2E/DX2 analytically  !
 ! D100  D(32,30,31,36)        178.7489         calculate D2E/DX2 analytically  !
 ! D101  D(3,30,32,34)         179.8115         calculate D2E/DX2 analytically  !
 ! D102  D(3,30,32,37)          -1.2298         calculate D2E/DX2 analytically  !
 ! D103  D(31,30,32,34)         -0.1799         calculate D2E/DX2 analytically  !
 ! D104  D(31,30,32,37)        178.7789         calculate D2E/DX2 analytically  !
 ! D105  D(30,31,33,35)          0.2883         calculate D2E/DX2 analytically  !
 ! D106  D(30,31,33,38)        179.8003         calculate D2E/DX2 analytically  !
 ! D107  D(36,31,33,35)       -178.5824         calculate D2E/DX2 analytically  !
 ! D108  D(36,31,33,38)          0.9296         calculate D2E/DX2 analytically  !
 ! D109  D(30,32,34,35)          0.3189         calculate D2E/DX2 analytically  !
 ! D110  D(30,32,34,39)        179.8983         calculate D2E/DX2 analytically  !
 ! D111  D(37,32,34,35)       -178.6426         calculate D2E/DX2 analytically  !
 ! D112  D(37,32,34,39)          0.9368         calculate D2E/DX2 analytically  !
 ! D113  D(31,33,35,34)         -0.1492         calculate D2E/DX2 analytically  !
 ! D114  D(31,33,35,40)        179.7982         calculate D2E/DX2 analytically  !
 ! D115  D(38,33,35,34)       -179.6589         calculate D2E/DX2 analytically  !
 ! D116  D(38,33,35,40)          0.2884         calculate D2E/DX2 analytically  !
 ! D117  D(32,34,35,33)         -0.1523         calculate D2E/DX2 analytically  !
 ! D118  D(32,34,35,40)        179.9004         calculate D2E/DX2 analytically  !
 ! D119  D(39,34,35,33)       -179.7295         calculate D2E/DX2 analytically  !
 ! D120  D(39,34,35,40)          0.3231         calculate D2E/DX2 analytically  !
 ! D121  D(15,41,42,44)       -179.7208         calculate D2E/DX2 analytically  !
 ! D122  D(15,41,42,47)          1.3761         calculate D2E/DX2 analytically  !
 ! D123  D(43,41,42,44)          0.1995         calculate D2E/DX2 analytically  !
 ! D124  D(43,41,42,47)       -178.7035         calculate D2E/DX2 analytically  !
 ! D125  D(15,41,43,45)       -179.9624         calculate D2E/DX2 analytically  !
 ! D126  D(15,41,43,48)          1.1335         calculate D2E/DX2 analytically  !
 ! D127  D(42,41,43,45)          0.1175         calculate D2E/DX2 analytically  !
 ! D128  D(42,41,43,48)       -178.7866         calculate D2E/DX2 analytically  !
 ! D129  D(41,42,44,46)         -0.342          calculate D2E/DX2 analytically  !
 ! D130  D(41,42,44,49)       -179.8389         calculate D2E/DX2 analytically  !
 ! D131  D(47,42,44,46)        178.5591         calculate D2E/DX2 analytically  !
 ! D132  D(47,42,44,49)         -0.9377         calculate D2E/DX2 analytically  !
 ! D133  D(41,43,45,46)         -0.2938         calculate D2E/DX2 analytically  !
 ! D134  D(41,43,45,50)       -179.8726         calculate D2E/DX2 analytically  !
 ! D135  D(48,43,45,46)        178.6132         calculate D2E/DX2 analytically  !
 ! D136  D(48,43,45,50)         -0.9656         calculate D2E/DX2 analytically  !
 ! D137  D(42,44,46,45)          0.164          calculate D2E/DX2 analytically  !
 ! D138  D(42,44,46,51)       -179.7833         calculate D2E/DX2 analytically  !
 ! D139  D(49,44,46,45)        179.6587         calculate D2E/DX2 analytically  !
 ! D140  D(49,44,46,51)         -0.2887         calculate D2E/DX2 analytically  !
 ! D141  D(43,45,46,44)          0.1517         calculate D2E/DX2 analytically  !
 ! D142  D(43,45,46,51)       -179.901          calculate D2E/DX2 analytically  !
 ! D143  D(50,45,46,44)        179.7283         calculate D2E/DX2 analytically  !
 ! D144  D(50,45,46,51)         -0.3243         calculate D2E/DX2 analytically  !
 --------------------------------------------------------------------------------
 Trust Radius=3.00D-01 FncErr=5.00D-06 GrdErr=5.00D-06 EigMax=2.50D+02 EigMin=1.00D-04
 Number of steps in this run=    303 maximum allowed number of steps=    306.
 GradGradGradGradGradGradGradGradGradGradGradGradGradGradGradGradGradGrad

 Leave Link  103 at Tue Feb  1 12:11:20 2022, MaxMem= 11408506880 cpu:               0.2 elap:               0.0
 (Enter /lustre1/prg/gaussian/bin/G16_C01_Linda9.2_SSE4/g16/l202.exe)
 Symmetry turned off by external request.
 Stoichiometry    C27H19BF2N2
 Framework group  C1[X(C27H19BF2N2)]
 Deg. of freedom   147
 Full point group                 C1      NOp   1
                          Input orientation:                          
 ---------------------------------------------------------------------
 Center     Atomic      Atomic             Coordinates (Angstroms)
 Number     Number       Type             X           Y           Z
 ---------------------------------------------------------------------
      1          7           0       12.395811   -9.430470   -1.150557
      2          6           0       13.168782   -9.796283   -2.172500
      3          6           0       14.055571   -8.747484   -2.526599
      4          6           0       13.769149   -7.697992   -1.654043
      5          6           0       12.738539   -8.134384   -0.787097
      6          6           0       11.505250   -5.110809    0.774831
      7          6           0       11.873039   -3.817651    1.137842
      8          6           0       13.208484   -3.518786    1.408904
      9          6           0       14.178961   -4.516210    1.310414
     10          6           0       13.819421   -5.807974    0.934324
     11          6           0       12.477765   -6.115595    0.665446
     12          6           0       12.086797   -7.487544    0.275819
     13          6           0       11.069602   -8.150425    0.982211
     14          6           0       10.354497   -7.778637    2.146142
     15          6           0        9.521158   -8.844419    2.484251
     16          6           0        9.761846   -9.846635    1.509702
     17          7           0       10.672263   -9.432927    0.628926
     18          9           0       11.588215  -11.510670   -0.203172
     19          5           0       11.184504  -10.242864   -0.599361
     20          9           0       10.191729  -10.320660   -1.570082
     21          1           0       13.045490  -10.774465   -2.632987
     22          1           0       14.245705   -6.722279   -1.620790
     23          1           0       10.463965   -5.345001    0.549261
     24          1           0       11.112409   -3.039591    1.206786
     25          1           0       13.493434   -2.506847    1.698555
     26          1           0       15.222259   -4.289380    1.531182
     27          1           0       14.573676   -6.593647    0.873777
     28          1           0       10.483693   -6.846251    2.688930
     29          1           0        9.308246  -10.830733    1.411087
     30          6           0       15.051465   -8.785296   -3.609142
     31          6           0       15.528135   -7.597821   -4.183362
     32          6           0       15.544581  -10.007298   -4.089467
     33          6           0       16.472185   -7.631546   -5.206120
     34          6           0       16.484336  -10.040295   -5.116939
     35          6           0       16.953621   -8.853044   -5.678849
     36          1           0       15.140855   -6.638307   -3.836766
     37          1           0       15.202442  -10.942714   -3.643597
     38          1           0       16.828422   -6.697575   -5.642372
     39          1           0       16.857069  -11.000412   -5.475728
     40          1           0       17.690538   -8.879213   -6.482109
     41          6           0        8.583865   -8.941845    3.614265
     42          6           0        8.072495   -7.784206    4.218701
     43          6           0        8.183517  -10.190659    4.111655
     44          6           0        7.189865   -7.872789    5.291913
     45          6           0        7.295493  -10.278404    5.180985
     46          6           0        6.795919   -9.120380    5.776941
     47          1           0        8.356477   -6.804399    3.831154
     48          1           0        8.584389  -11.104169    3.669337
     49          1           0        6.800731   -6.961319    5.747235
     50          1           0        6.997561  -11.258554    5.555075
     51          1           0        6.101955   -9.189622    6.615141
 ---------------------------------------------------------------------
 Rotational constants (GHZ):           0.2450844           0.0709351           0.0567567
 Leave Link  202 at Tue Feb  1 12:11:20 2022, MaxMem= 11408506880 cpu:               0.1 elap:               0.0
 (Enter /lustre1/prg/gaussian/bin/G16_C01_Linda9.2_SSE4/g16/l301.exe)
 Standard basis: CC-pVDZ (5D, 7F)
 Ernie: Thresh=  0.10000D-02 Tol=  0.10000D-05 Strict=F.
 Ernie:  64 primitive shells out of 799 were deleted.
   543 basis functions,  1189 primitive gaussians,   575 cartesian basis functions
   109 alpha electrons      109 beta electrons
       nuclear repulsion energy      2847.9515245973 Hartrees.
 IExCor= 4336 DFT=T Ex+Corr=M062X ExCW=0 ScaHFX=  0.540000
 ScaDFX=  1.000000  1.000000  1.000000  1.000000 ScalE2=  1.000000  1.000000
 IRadAn=      5 IRanWt=     -1 IRanGd=            0 ICorTp=0 IEmpDi=  4
 NAtoms=   51 NActive=   51 NUniq=   51 SFac= 1.00D+00 NAtFMM=   60 NAOKFM=F Big=F
 Integral buffers will be    131072 words long.
 Raffenetti 2 integral format.
 Two-electron integral symmetry is turned off.
 Force inversion solution in PCM.
 ------------------------------------------------------------------------------
 Polarizable Continuum Model (PCM)
 =================================
 Model                : C-PCM.
 Atomic radii         : UFF (Universal Force Field).
 Polarization charges : Total charges.
 Charge compensation  : None.
 Solution method      : Matrix inversion.
 Cavity type          : Scaled VdW (van der Waals Surface) (Alpha=1.100).
 Cavity algorithm     : GePol (No added spheres)
                        Default sphere list used, NSphG=   51.
                        Lebedev-Laikov grids with approx.  5.0 points / Ang**2.
                        Smoothing algorithm: York/Karplus (Gamma=1.0000).
                        Polarization charges: spherical gaussians, with
                                              point-specific exponents (IZeta= 3).
                        Self-potential: point-specific (ISelfS= 7).
                        Self-field    : sphere-specific E.n sum rule (ISelfD= 2).
 1st derivatives      : Analytical E(r).r(x)/FMM algorithm (CHGder, D1EAlg=3).
                        Cavity 1st derivative terms included.
 2nd derivatives      : Analytical E(r).r(xy)/FMM algorithm (CHGder, D2EAlg=3).
                        Cavity 2nd derivative terms included.
 Solvent              : TetraHydroFuran, Eps=   7.425700 Eps(inf)=   1.974025
 ------------------------------------------------------------------------------
 GePol: Number of generator spheres                  =      51
 GePol: Total number of spheres                      =      51
 GePol: Number of exposed spheres                    =      51 (100.00%)
 GePol: Number of points                             =    3807
 GePol: Average weight of points                     =       0.13
 GePol: Minimum weight of points                     =   0.16D-11
 GePol: Maximum weight of points                     =    0.20577
 GePol: Number of points with low weight             =     260
 GePol: Fraction of low-weight points (<1% of avg)   =       6.83%
 GePol: Cavity surface area                          =    493.787 Ang**2
 GePol: Cavity volume                                =    555.252 Ang**3
 Leave Link  301 at Tue Feb  1 12:11:20 2022, MaxMem= 11408506880 cpu:               1.4 elap:               0.1
@@@@@@@@@@@@@@@@@@@@@@@@@@@@@@@@@@@@@@@@@@@@@@@@@@@@@@@@@@@
@    WARNING: REMOTE HOST IDENTIFICATION HAS CHANGED!     @
@@@@@@@@@@@@@@@@@@@@@@@@@@@@@@@@@@@@@@@@@@@@@@@@@@@@@@@@@@@
IT IS POSSIBLE THAT SOMEONE IS DOING SOMETHING NASTY!
Someone could be eavesdropping on you right now (man-in-the-middle attack)!
It is also possible that a host key has just been changed.
The fingerprint for the ECDSA key sent by the remote host is
SHA256:r5soQIxRnmk29FTE5JOdituPXEMGmulv/v/xkbS9pcA.
Please contact your system administrator.
Add correct host key in /lustre2/home/toliste/.ssh/known_hosts to get rid of this message.
Offending ECDSA key in /lustre2/home/toliste/.ssh/known_hosts:126
Password authentication is disabled to avoid man-in-the-middle attacks.
Keyboard-interactive authentication is disabled to avoid man-in-the-middle attacks.
@@@@@@@@@@@@@@@@@@@@@@@@@@@@@@@@@@@@@@@@@@@@@@@@@@@@@@@@@@@
@    WARNING: REMOTE HOST IDENTIFICATION HAS CHANGED!     @
@@@@@@@@@@@@@@@@@@@@@@@@@@@@@@@@@@@@@@@@@@@@@@@@@@@@@@@@@@@
IT IS POSSIBLE THAT SOMEONE IS DOING SOMETHING NASTY!
Someone could be eavesdropping on you right now (man-in-the-middle attack)!
It is also possible that a host key has just been changed.
The fingerprint for the ECDSA key sent by the remote host is
SHA256:8EB/dta3zL65mO1pv+8d0wE2OT2buqUpy/g0J04Imvc.
Please contact your system administrator.
Add correct host key in /lustre2/home/toliste/.ssh/known_hosts to get rid of this message.
Offending ECDSA key in /lustre2/home/toliste/.ssh/known_hosts:142
Password authentication is disabled to avoid man-in-the-middle attacks.
Keyboard-interactive authentication is disabled to avoid man-in-the-middle attacks.
@@@@@@@@@@@@@@@@@@@@@@@@@@@@@@@@@@@@@@@@@@@@@@@@@@@@@@@@@@@
@    WARNING: REMOTE HOST IDENTIFICATION HAS CHANGED!     @
@@@@@@@@@@@@@@@@@@@@@@@@@@@@@@@@@@@@@@@@@@@@@@@@@@@@@@@@@@@
IT IS POSSIBLE THAT SOMEONE IS DOING SOMETHING NASTY!
Someone could be eavesdropping on you right now (man-in-the-middle attack)!
It is also possible that a host key has just been changed.
The fingerprint for the ECDSA key sent by the remote host is
SHA256:iql/71DAvox/0ep0uxNo7tO6d/XSARBjVPu4x7vTmu8.
Please contact your system administrator.
Add correct host key in /lustre2/home/toliste/.ssh/known_hosts to get rid of this message.
Offending ECDSA key in /lustre2/home/toliste/.ssh/known_hosts:140
Password authentication is disabled to avoid man-in-the-middle attacks.
Keyboard-interactive authentication is disabled to avoid man-in-the-middle attacks.
@@@@@@@@@@@@@@@@@@@@@@@@@@@@@@@@@@@@@@@@@@@@@@@@@@@@@@@@@@@
@    WARNING: REMOTE HOST IDENTIFICATION HAS CHANGED!     @
@@@@@@@@@@@@@@@@@@@@@@@@@@@@@@@@@@@@@@@@@@@@@@@@@@@@@@@@@@@
IT IS POSSIBLE THAT SOMEONE IS DOING SOMETHING NASTY!
Someone could be eavesdropping on you right now (man-in-the-middle attack)!
It is also possible that a host key has just been changed.
The fingerprint for the ECDSA key sent by the remote host is
SHA256:M7N4+PsNku+I1HYDN4P2eKdo7KDrdu2gTV8W6I04mak.
Please contact your system administrator.
Add correct host key in /lustre2/home/toliste/.ssh/known_hosts to get rid of this message.
Offending ECDSA key in /lustre2/home/toliste/.ssh/known_hosts:141
Password authentication is disabled to avoid man-in-the-middle attacks.
Keyboard-interactive authentication is disabled to avoid man-in-the-middle attacks.
 (Enter /lustre1/prg/gaussian/bin/G16_C01_Linda9.2_SSE4/g16/linda-exe/l302.exel)
 NPDir=0 NMtPBC=     1 NCelOv=     1 NCel=       1 NClECP=     1 NCelD=      1
         NCelK=      1 NCelE2=     1 NClLst=     1 CellRange=     0.0.
 One-electron integrals computed using PRISM.
 NBasis=   543 RedAO= T EigKep=  2.18D-04  NBF=   543
 NBsUse=   543 1.00D-06 EigRej= -1.00D+00 NBFU=   543
 Precomputing XC quadrature grid using
 IXCGrd= 4 IRadAn=           5 IRanWt=          -1 IRanGd=           0 AccXCQ= 0.00D+00.
 Generated NRdTot=       0 NPtTot=           0 NUsed=           0 NTot=          32
 NSgBfM=   557   557   557   557   557 MxSgAt=    51 MxSgA2=    51.
 Leave Link  302 at Tue Feb  1 12:11:26 2022, MaxMem= 11408506880 cpu:              33.4 elap:               2.9
 (Enter /lustre1/prg/gaussian/bin/G16_C01_Linda9.2_SSE4/g16/l303.exe)
 DipDrv:  MaxL=1.
 Leave Link  303 at Tue Feb  1 12:11:26 2022, MaxMem= 11408506880 cpu:               2.7 elap:               0.4
@@@@@@@@@@@@@@@@@@@@@@@@@@@@@@@@@@@@@@@@@@@@@@@@@@@@@@@@@@@
@    WARNING: REMOTE HOST IDENTIFICATION HAS CHANGED!     @
@@@@@@@@@@@@@@@@@@@@@@@@@@@@@@@@@@@@@@@@@@@@@@@@@@@@@@@@@@@
IT IS POSSIBLE THAT SOMEONE IS DOING SOMETHING NASTY!
Someone could be eavesdropping on you right now (man-in-the-middle attack)!
It is also possible that a host key has just been changed.
The fingerprint for the ECDSA key sent by the remote host is
SHA256:r5soQIxRnmk29FTE5JOdituPXEMGmulv/v/xkbS9pcA.
Please contact your system administrator.
Add correct host key in /lustre2/home/toliste/.ssh/known_hosts to get rid of this message.
Offending ECDSA key in /lustre2/home/toliste/.ssh/known_hosts:126
Password authentication is disabled to avoid man-in-the-middle attacks.
Keyboard-interactive authentication is disabled to avoid man-in-the-middle attacks.
@@@@@@@@@@@@@@@@@@@@@@@@@@@@@@@@@@@@@@@@@@@@@@@@@@@@@@@@@@@
@    WARNING: REMOTE HOST IDENTIFICATION HAS CHANGED!     @
@@@@@@@@@@@@@@@@@@@@@@@@@@@@@@@@@@@@@@@@@@@@@@@@@@@@@@@@@@@
IT IS POSSIBLE THAT SOMEONE IS DOING SOMETHING NASTY!
Someone could be eavesdropping on you right now (man-in-the-middle attack)!
It is also possible that a host key has just been changed.
The fingerprint for the ECDSA key sent by the remote host is
SHA256:M7N4+PsNku+I1HYDN4P2eKdo7KDrdu2gTV8W6I04mak.
Please contact your system administrator.
Add correct host key in /lustre2/home/toliste/.ssh/known_hosts to get rid of this message.
Offending ECDSA key in /lustre2/home/toliste/.ssh/known_hosts:141
Password authentication is disabled to avoid man-in-the-middle attacks.
Keyboard-interactive authentication is disabled to avoid man-in-the-middle attacks.
@@@@@@@@@@@@@@@@@@@@@@@@@@@@@@@@@@@@@@@@@@@@@@@@@@@@@@@@@@@
@    WARNING: REMOTE HOST IDENTIFICATION HAS CHANGED!     @
@@@@@@@@@@@@@@@@@@@@@@@@@@@@@@@@@@@@@@@@@@@@@@@@@@@@@@@@@@@
IT IS POSSIBLE THAT SOMEONE IS DOING SOMETHING NASTY!
Someone could be eavesdropping on you right now (man-in-the-middle attack)!
It is also possible that a host key has just been changed.
The fingerprint for the ECDSA key sent by the remote host is
SHA256:iql/71DAvox/0ep0uxNo7tO6d/XSARBjVPu4x7vTmu8.
Please contact your system administrator.
Add correct host key in /lustre2/home/toliste/.ssh/known_hosts to get rid of this message.
Offending ECDSA key in /lustre2/home/toliste/.ssh/known_hosts:140
Password authentication is disabled to avoid man-in-the-middle attacks.
Keyboard-interactive authentication is disabled to avoid man-in-the-middle attacks.
@@@@@@@@@@@@@@@@@@@@@@@@@@@@@@@@@@@@@@@@@@@@@@@@@@@@@@@@@@@
@    WARNING: REMOTE HOST IDENTIFICATION HAS CHANGED!     @
@@@@@@@@@@@@@@@@@@@@@@@@@@@@@@@@@@@@@@@@@@@@@@@@@@@@@@@@@@@
IT IS POSSIBLE THAT SOMEONE IS DOING SOMETHING NASTY!
Someone could be eavesdropping on you right now (man-in-the-middle attack)!
It is also possible that a host key has just been changed.
The fingerprint for the ECDSA key sent by the remote host is
SHA256:8EB/dta3zL65mO1pv+8d0wE2OT2buqUpy/g0J04Imvc.
Please contact your system administrator.
Add correct host key in /lustre2/home/toliste/.ssh/known_hosts to get rid of this message.
Offending ECDSA key in /lustre2/home/toliste/.ssh/known_hosts:142
Password authentication is disabled to avoid man-in-the-middle attacks.
Keyboard-interactive authentication is disabled to avoid man-in-the-middle attacks.
 (Enter /lustre1/prg/gaussian/bin/G16_C01_Linda9.2_SSE4/g16/linda-exe/l401.exel)
 ExpMin= 9.54D-02 ExpMax= 1.47D+04 ExpMxC= 5.03D+02 IAcc=3 IRadAn=         5 AccDes= 0.00D+00
 Harris functional with IExCor= 1009 and IRadAn=       5 diagonalized for initial guess.
 HarFok:  IExCor= 1009 AccDes= 0.00D+00 IRadAn=         5 IDoV= 1 UseB2=F ITyADJ=14
 ICtDFT=  3500011 ScaDFX=  1.000000  1.000000  1.000000  1.000000
 FoFCou: FMM=F IPFlag=           0 FMFlag=      100000 FMFlg1=           0
         NFxFlg=           0 DoJE=T BraDBF=F KetDBF=T FulRan=T
         wScrn=  0.000000 ICntrl=       500 IOpCl=  0 I1Cent=   200000004 NGrid=           0
         NMat0=    1 NMatS0=      1 NMatT0=    0 NMatD0=    1 NMtDS0=    0 NMtDT0=    0
 Symmetry not used in FoFCou.
 Harris En= -1373.29529033894    
 JPrj=0 DoOrth=F DoCkMO=F.
 Leave Link  401 at Tue Feb  1 12:11:35 2022, MaxMem= 11408506880 cpu:              66.0 elap:               5.8
@@@@@@@@@@@@@@@@@@@@@@@@@@@@@@@@@@@@@@@@@@@@@@@@@@@@@@@@@@@
@    WARNING: REMOTE HOST IDENTIFICATION HAS CHANGED!     @
@@@@@@@@@@@@@@@@@@@@@@@@@@@@@@@@@@@@@@@@@@@@@@@@@@@@@@@@@@@
IT IS POSSIBLE THAT SOMEONE IS DOING SOMETHING NASTY!
Someone could be eavesdropping on you right now (man-in-the-middle attack)!
It is also possible that a host key has just been changed.
The fingerprint for the ECDSA key sent by the remote host is
SHA256:8EB/dta3zL65mO1pv+8d0wE2OT2buqUpy/g0J04Imvc.
Please contact your system administrator.
Add correct host key in /lustre2/home/toliste/.ssh/known_hosts to get rid of this message.
Offending ECDSA key in /lustre2/home/toliste/.ssh/known_hosts:142
Password authentication is disabled to avoid man-in-the-middle attacks.
Keyboard-interactive authentication is disabled to avoid man-in-the-middle attacks.
@@@@@@@@@@@@@@@@@@@@@@@@@@@@@@@@@@@@@@@@@@@@@@@@@@@@@@@@@@@
@    WARNING: REMOTE HOST IDENTIFICATION HAS CHANGED!     @
@@@@@@@@@@@@@@@@@@@@@@@@@@@@@@@@@@@@@@@@@@@@@@@@@@@@@@@@@@@
IT IS POSSIBLE THAT SOMEONE IS DOING SOMETHING NASTY!
Someone could be eavesdropping on you right now (man-in-the-middle attack)!
It is also possible that a host key has just been changed.
The fingerprint for the ECDSA key sent by the remote host is
SHA256:iql/71DAvox/0ep0uxNo7tO6d/XSARBjVPu4x7vTmu8.
@@@@@@@@@@@@@@@@@@@@@@@@@@@@@@@@@@@@@@@@@@@@@@@@@@@@@@@@@@@
Please contact your system administrator.
@    WARNING: REMOTE HOST IDENTIFICATION HAS CHANGED!     @
Add correct host key in /lustre2/home/toliste/.ssh/known_hosts to get rid of this message.
@@@@@@@@@@@@@@@@@@@@@@@@@@@@@@@@@@@@@@@@@@@@@@@@@@@@@@@@@@@
Offending ECDSA key in /lustre2/home/toliste/.ssh/known_hosts:140
IT IS POSSIBLE THAT SOMEONE IS DOING SOMETHING NASTY!
Password authentication is disabled to avoid man-in-the-middle attacks.
Someone could be eavesdropping on you right now (man-in-the-middle attack)!
Keyboard-interactive authentication is disabled to avoid man-in-the-middle attacks.
It is also possible that a host key has just been changed.
The fingerprint for the ECDSA key sent by the remote host is
SHA256:r5soQIxRnmk29FTE5JOdituPXEMGmulv/v/xkbS9pcA.
Please contact your system administrator.
Add correct host key in /lustre2/home/toliste/.ssh/known_hosts to get rid of this message.
Offending ECDSA key in /lustre2/home/toliste/.ssh/known_hosts:126
Password authentication is disabled to avoid man-in-the-middle attacks.
Keyboard-interactive authentication is disabled to avoid man-in-the-middle attacks.
@@@@@@@@@@@@@@@@@@@@@@@@@@@@@@@@@@@@@@@@@@@@@@@@@@@@@@@@@@@
@    WARNING: REMOTE HOST IDENTIFICATION HAS CHANGED!     @
@@@@@@@@@@@@@@@@@@@@@@@@@@@@@@@@@@@@@@@@@@@@@@@@@@@@@@@@@@@
IT IS POSSIBLE THAT SOMEONE IS DOING SOMETHING NASTY!
Someone could be eavesdropping on you right now (man-in-the-middle attack)!
It is also possible that a host key has just been changed.
The fingerprint for the ECDSA key sent by the remote host is
SHA256:M7N4+PsNku+I1HYDN4P2eKdo7KDrdu2gTV8W6I04mak.
Please contact your system administrator.
Add correct host key in /lustre2/home/toliste/.ssh/known_hosts to get rid of this message.
Offending ECDSA key in /lustre2/home/toliste/.ssh/known_hosts:141
Password authentication is disabled to avoid man-in-the-middle attacks.
Keyboard-interactive authentication is disabled to avoid man-in-the-middle attacks.
 (Enter /lustre1/prg/gaussian/bin/G16_C01_Linda9.2_SSE4/g16/linda-exe/l502.exel)
 Two-electron integral symmetry not used.
 Closed shell SCF:
 Using DIIS extrapolation, IDIIS=  1040.
 NGot= 11408506880 LenX= 11407832935 LenY= 11407501735
 Requested convergence on RMS density matrix=1.00D-08 within 128 cycles.
 Requested convergence on MAX density matrix=1.00D-06.
 Requested convergence on             energy=1.00D-06.
 No special actions if energy rises.
 Fock matrices will be formed incrementally for  20 cycles.

 Cycle   1  Pass 1  IDiag  1:
 FoFJK:  IHMeth= 1 ICntrl=       0 DoSepK=F KAlg= 0 I1Cent=           0 FoldK=F
 IRaf= 680000000 NMat=       1 IRICut=       1 DoRegI=T DoRafI=F ISym2E= 0 IDoP0=0 IntGTp=1.
 FoFCou: FMM=F IPFlag=           0 FMFlag=      100000 FMFlg1=           0
         NFxFlg=           0 DoJE=F BraDBF=F KetDBF=F FulRan=T
         wScrn=  0.000000 ICntrl=         0 IOpCl=  0 I1Cent=           0 NGrid=           0
         NMat0=    1 NMatS0=      1 NMatT0=    0 NMatD0=    1 NMtDS0=    0 NMtDT0=    0
 Symmetry not used in FoFCou.
 Inv3:  Mode=1 IEnd=    43479747.
 Iteration    1 A*A^-1 deviation from unit magnitude is 8.88D-15 for   3801.
 Iteration    1 A*A^-1 deviation from orthogonality  is 6.07D-15 for   3806   1363.
 Iteration    1 A^-1*A deviation from unit magnitude is 8.88D-15 for   3801.
 Iteration    1 A^-1*A deviation from orthogonality  is 1.99D-15 for   3783   1488.
 E= -1373.64144728799    
 DIIS: error= 3.84D-02 at cycle   1 NSaved=   1.
 NSaved= 1 IEnMin= 1 EnMin= -1373.64144728799     IErMin= 1 ErrMin= 3.84D-02
 ErrMax= 3.84D-02  0.00D+00 EMaxC= 1.00D-01 BMatC= 5.18D-01 BMatP= 5.18D-01
 IDIUse=3 WtCom= 6.16D-01 WtEn= 3.84D-01
 Coeff-Com:  0.100D+01
 Coeff-En:   0.100D+01
 Coeff:      0.100D+01
 Gap=     0.161 Goal=   None    Shift=    0.000
 GapD=    0.161 DampG=1.000 DampE=0.500 DampFc=0.5000 IDamp=-1.
 Damping current iteration by 5.00D-01
 RMSDP=3.13D-03 MaxDP=1.18D-01              OVMax= 1.47D-01

 Cycle   2  Pass 1  IDiag  1:
 RMSU=  1.47D-03    CP:  9.64D-01
 E= -1373.91787285112     Delta-E=       -0.276425563132 Rises=F Damp=T
 DIIS: error= 7.66D-03 at cycle   2 NSaved=   2.
 NSaved= 2 IEnMin= 2 EnMin= -1373.91787285112     IErMin= 2 ErrMin= 7.66D-03
 ErrMax= 7.66D-03  0.00D+00 EMaxC= 1.00D-01 BMatC= 4.39D-02 BMatP= 5.18D-01
 IDIUse=3 WtCom= 9.23D-01 WtEn= 7.66D-02
 Coeff-Com: -0.152D+00 0.115D+01
 Coeff-En:   0.000D+00 0.100D+01
 Coeff:     -0.140D+00 0.114D+01
 Gap=     0.183 Goal=   None    Shift=    0.000
 RMSDP=1.07D-03 MaxDP=6.19D-02 DE=-2.76D-01 OVMax= 8.77D-02

 Cycle   3  Pass 1  IDiag  1:
 RMSU=  7.60D-04    CP:  9.40D-01  1.45D+00
 E= -1374.15886475361     Delta-E=       -0.240991902492 Rises=F Damp=F
 DIIS: error= 5.66D-03 at cycle   3 NSaved=   3.
 NSaved= 3 IEnMin= 3 EnMin= -1374.15886475361     IErMin= 3 ErrMin= 5.66D-03
 ErrMax= 5.66D-03  0.00D+00 EMaxC= 1.00D-01 BMatC= 1.53D-02 BMatP= 4.39D-02
 IDIUse=3 WtCom= 9.43D-01 WtEn= 5.66D-02
 Coeff-Com: -0.113D+00 0.453D+00 0.660D+00
 Coeff-En:   0.000D+00 0.000D+00 0.100D+01
 Coeff:     -0.107D+00 0.428D+00 0.680D+00
 Gap=     0.160 Goal=   None    Shift=    0.000
 RMSDP=3.09D-04 MaxDP=1.74D-02 DE=-2.41D-01 OVMax= 3.86D-02

 Cycle   4  Pass 1  IDiag  1:
 RMSU=  2.37D-04    CP:  9.41D-01  1.47D+00  7.44D-01
 E= -1374.16942656787     Delta-E=       -0.010561814261 Rises=F Damp=F
 DIIS: error= 2.14D-03 at cycle   4 NSaved=   4.
 NSaved= 4 IEnMin= 4 EnMin= -1374.16942656787     IErMin= 4 ErrMin= 2.14D-03
 ErrMax= 2.14D-03  0.00D+00 EMaxC= 1.00D-01 BMatC= 3.96D-03 BMatP= 1.53D-02
 IDIUse=3 WtCom= 9.79D-01 WtEn= 2.14D-02
 Coeff-Com: -0.393D-01 0.108D+00 0.371D+00 0.560D+00
 Coeff-En:   0.000D+00 0.000D+00 0.202D+00 0.798D+00
 Coeff:     -0.385D-01 0.106D+00 0.368D+00 0.565D+00
 Gap=     0.163 Goal=   None    Shift=    0.000
 RMSDP=1.21D-04 MaxDP=7.31D-03 DE=-1.06D-02 OVMax= 1.76D-02

 Cycle   5  Pass 1  IDiag  1:
 RMSU=  5.79D-05    CP:  9.41D-01  1.47D+00  8.22D-01  6.33D-01
 E= -1374.17311781461     Delta-E=       -0.003691246739 Rises=F Damp=F
 DIIS: error= 3.32D-04 at cycle   5 NSaved=   5.
 NSaved= 5 IEnMin= 5 EnMin= -1374.17311781461     IErMin= 5 ErrMin= 3.32D-04
 ErrMax= 3.32D-04  0.00D+00 EMaxC= 1.00D-01 BMatC= 1.75D-04 BMatP= 3.96D-03
 IDIUse=3 WtCom= 9.97D-01 WtEn= 3.32D-03
 Coeff-Com: -0.931D-02 0.157D-01 0.117D+00 0.255D+00 0.621D+00
 Coeff-En:   0.000D+00 0.000D+00 0.000D+00 0.000D+00 0.100D+01
 Coeff:     -0.927D-02 0.157D-01 0.117D+00 0.254D+00 0.623D+00
 Gap=     0.163 Goal=   None    Shift=    0.000
 RMSDP=2.74D-05 MaxDP=1.74D-03 DE=-3.69D-03 OVMax= 3.27D-03

 Cycle   6  Pass 1  IDiag  1:
 RMSU=  1.82D-05    CP:  9.40D-01  1.48D+00  8.25D-01  6.75D-01  7.01D-01
 E= -1374.17328442485     Delta-E=       -0.000166610241 Rises=F Damp=F
 DIIS: error= 1.37D-04 at cycle   6 NSaved=   6.
 NSaved= 6 IEnMin= 6 EnMin= -1374.17328442485     IErMin= 6 ErrMin= 1.37D-04
 ErrMax= 1.37D-04  0.00D+00 EMaxC= 1.00D-01 BMatC= 1.20D-05 BMatP= 1.75D-04
 IDIUse=3 WtCom= 9.99D-01 WtEn= 1.37D-03
 Coeff-Com: -0.181D-02 0.916D-03 0.281D-01 0.745D-01 0.273D+00 0.626D+00
 Coeff-En:   0.000D+00 0.000D+00 0.000D+00 0.000D+00 0.000D+00 0.100D+01
 Coeff:     -0.181D-02 0.915D-03 0.280D-01 0.744D-01 0.272D+00 0.626D+00
 Gap=     0.163 Goal=   None    Shift=    0.000
 RMSDP=7.87D-06 MaxDP=2.68D-04 DE=-1.67D-04 OVMax= 1.46D-03

 Cycle   7  Pass 1  IDiag  1:
 RMSU=  6.06D-06    CP:  9.40D-01  1.48D+00  8.28D-01  6.75D-01  7.65D-01
                    CP:  8.32D-01
 E= -1374.17329707498     Delta-E=       -0.000012650131 Rises=F Damp=F
 DIIS: error= 3.13D-05 at cycle   7 NSaved=   7.
 NSaved= 7 IEnMin= 7 EnMin= -1374.17329707498     IErMin= 7 ErrMin= 3.13D-05
 ErrMax= 3.13D-05  0.00D+00 EMaxC= 1.00D-01 BMatC= 1.03D-06 BMatP= 1.20D-05
 IDIUse=1 WtCom= 1.00D+00 WtEn= 0.00D+00
 Coeff-Com:  0.364D-03-0.151D-02-0.235D-02 0.329D-03 0.337D-01 0.231D+00
 Coeff-Com:  0.739D+00
 Coeff:      0.364D-03-0.151D-02-0.235D-02 0.329D-03 0.337D-01 0.231D+00
 Coeff:      0.739D+00
 Gap=     0.163 Goal=   None    Shift=    0.000
 RMSDP=3.04D-06 MaxDP=1.48D-04 DE=-1.27D-05 OVMax= 5.14D-04

 Cycle   8  Pass 1  IDiag  1:
 RMSU=  2.30D-06    CP:  9.40D-01  1.48D+00  8.28D-01  6.79D-01  7.72D-01
                    CP:  9.22D-01  9.63D-01
 E= -1374.17329831263     Delta-E=       -0.000001237648 Rises=F Damp=F
 DIIS: error= 1.25D-05 at cycle   8 NSaved=   8.
 NSaved= 8 IEnMin= 8 EnMin= -1374.17329831263     IErMin= 8 ErrMin= 1.25D-05
 ErrMax= 1.25D-05  0.00D+00 EMaxC= 1.00D-01 BMatC= 1.94D-07 BMatP= 1.03D-06
 IDIUse=1 WtCom= 1.00D+00 WtEn= 0.00D+00
 Coeff-Com:  0.545D-03-0.952D-03-0.643D-02-0.139D-01-0.356D-01-0.555D-02
 Coeff-Com:  0.341D+00 0.721D+00
 Coeff:      0.545D-03-0.952D-03-0.643D-02-0.139D-01-0.356D-01-0.555D-02
 Coeff:      0.341D+00 0.721D+00
 Gap=     0.163 Goal=   None    Shift=    0.000
 RMSDP=1.28D-06 MaxDP=5.97D-05 DE=-1.24D-06 OVMax= 2.89D-04

 Cycle   9  Pass 1  IDiag  1:
 RMSU=  6.79D-07    CP:  9.40D-01  1.48D+00  8.28D-01  6.79D-01  7.79D-01
                    CP:  9.50D-01  1.07D+00  7.98D-01
 E= -1374.17329857714     Delta-E=       -0.000000264507 Rises=F Damp=F
 DIIS: error= 3.01D-06 at cycle   9 NSaved=   9.
 NSaved= 9 IEnMin= 9 EnMin= -1374.17329857714     IErMin= 9 ErrMin= 3.01D-06
 ErrMax= 3.01D-06  0.00D+00 EMaxC= 1.00D-01 BMatC= 1.09D-08 BMatP= 1.94D-07
 IDIUse=1 WtCom= 1.00D+00 WtEn= 0.00D+00
 Coeff-Com:  0.166D-03-0.238D-03-0.200D-02-0.470D-02-0.141D-01-0.121D-01
 Coeff-Com:  0.722D-01 0.254D+00 0.706D+00
 Coeff:      0.166D-03-0.238D-03-0.200D-02-0.470D-02-0.141D-01-0.121D-01
 Coeff:      0.722D-01 0.254D+00 0.706D+00
 Gap=     0.163 Goal=   None    Shift=    0.000
 RMSDP=3.23D-07 MaxDP=2.51D-05 DE=-2.65D-07 OVMax= 5.09D-05

 Cycle  10  Pass 1  IDiag  1:
 RMSU=  2.40D-07    CP:  9.40D-01  1.48D+00  8.28D-01  6.80D-01  7.79D-01
                    CP:  9.55D-01  1.09D+00  8.63D-01  9.38D-01
 E= -1374.17329859007     Delta-E=       -0.000000012931 Rises=F Damp=F
 DIIS: error= 1.70D-06 at cycle  10 NSaved=  10.
 NSaved=10 IEnMin=10 EnMin= -1374.17329859007     IErMin=10 ErrMin= 1.70D-06
 ErrMax= 1.70D-06  0.00D+00 EMaxC= 1.00D-01 BMatC= 2.50D-09 BMatP= 1.09D-08
 IDIUse=1 WtCom= 1.00D+00 WtEn= 0.00D+00
 Coeff-Com: -0.845D-05 0.359D-04 0.128D-03 0.111D-03-0.853D-03-0.441D-02
 Coeff-Com: -0.252D-01 0.293D-02 0.337D+00 0.690D+00
 Coeff:     -0.845D-05 0.359D-04 0.128D-03 0.111D-03-0.853D-03-0.441D-02
 Coeff:     -0.252D-01 0.293D-02 0.337D+00 0.690D+00
 Gap=     0.163 Goal=   None    Shift=    0.000
 RMSDP=1.26D-07 MaxDP=6.38D-06 DE=-1.29D-08 OVMax= 2.19D-05

 Cycle  11  Pass 1  IDiag  1:
 RMSU=  8.23D-08    CP:  9.40D-01  1.48D+00  8.28D-01  6.80D-01  7.79D-01
                    CP:  9.57D-01  1.09D+00  8.74D-01  1.04D+00  8.72D-01
 E= -1374.17329859304     Delta-E=       -0.000000002970 Rises=F Damp=F
 DIIS: error= 4.32D-07 at cycle  11 NSaved=  11.
 NSaved=11 IEnMin=11 EnMin= -1374.17329859304     IErMin=11 ErrMin= 4.32D-07
 ErrMax= 4.32D-07  0.00D+00 EMaxC= 1.00D-01 BMatC= 1.87D-10 BMatP= 2.50D-09
 IDIUse=1 WtCom= 1.00D+00 WtEn= 0.00D+00
 Coeff-Com: -0.224D-04 0.415D-04 0.282D-03 0.596D-03 0.126D-02-0.302D-03
 Coeff-Com: -0.195D-01-0.289D-01 0.458D-01 0.260D+00 0.740D+00
 Coeff:     -0.224D-04 0.415D-04 0.282D-03 0.596D-03 0.126D-02-0.302D-03
 Coeff:     -0.195D-01-0.289D-01 0.458D-01 0.260D+00 0.740D+00
 Gap=     0.163 Goal=   None    Shift=    0.000
 RMSDP=4.16D-08 MaxDP=1.74D-06 DE=-2.97D-09 OVMax= 6.51D-06

 Cycle  12  Pass 1  IDiag  1:
 RMSU=  2.42D-08    CP:  9.40D-01  1.48D+00  8.28D-01  6.80D-01  7.79D-01
                    CP:  9.58D-01  1.09D+00  8.79D-01  1.07D+00  9.59D-01
                    CP:  9.25D-01
 E= -1374.17329859352     Delta-E=       -0.000000000479 Rises=F Damp=F
 DIIS: error= 1.68D-07 at cycle  12 NSaved=  12.
 NSaved=12 IEnMin=12 EnMin= -1374.17329859352     IErMin=12 ErrMin= 1.68D-07
 ErrMax= 1.68D-07  0.00D+00 EMaxC= 1.00D-01 BMatC= 1.51D-11 BMatP= 1.87D-10
 IDIUse=1 WtCom= 1.00D+00 WtEn= 0.00D+00
 Coeff-Com: -0.664D-05 0.107D-04 0.850D-04 0.192D-03 0.475D-03 0.306D-03
 Coeff-Com: -0.458D-02-0.876D-02-0.984D-02 0.388D-01 0.270D+00 0.713D+00
 Coeff:     -0.664D-05 0.107D-04 0.850D-04 0.192D-03 0.475D-03 0.306D-03
 Coeff:     -0.458D-02-0.876D-02-0.984D-02 0.388D-01 0.270D+00 0.713D+00
 Gap=     0.163 Goal=   None    Shift=    0.000
 RMSDP=9.39D-09 MaxDP=5.97D-07 DE=-4.79D-10 OVMax= 1.76D-06

 Error on total polarization charges =  0.01412
 SCF Done:  E(RM062X) =  -1374.17329859     A.U. after   12 cycles
            NFock= 12  Conv=0.94D-08     -V/T= 2.0062
 KE= 1.365665564762D+03 PE=-8.896094308423D+03 EE= 3.308303920470D+03
 Leave Link  502 at Tue Feb  1 12:14:09 2022, MaxMem= 11408506880 cpu:            1706.7 elap:             151.3
 (Enter /lustre1/prg/gaussian/bin/G16_C01_Linda9.2_SSE4/g16/l801.exe)
 DoSCS=F DFT=T ScalE2(SS,OS)=  1.000000  1.000000
 Range of M.O.s used for correlation:     1   543
 NBasis=   543 NAE=   109 NBE=   109 NFC=     0 NFV=     0
 NROrb=    543 NOA=   109 NOB=   109 NVA=   434 NVB=   434

 **** Warning!!: The largest alpha MO coefficient is  0.13315835D+02

 Leave Link  801 at Tue Feb  1 12:14:09 2022, MaxMem= 11408506880 cpu:               0.6 elap:               0.1
@@@@@@@@@@@@@@@@@@@@@@@@@@@@@@@@@@@@@@@@@@@@@@@@@@@@@@@@@@@
@    WARNING: REMOTE HOST IDENTIFICATION HAS CHANGED!     @
@@@@@@@@@@@@@@@@@@@@@@@@@@@@@@@@@@@@@@@@@@@@@@@@@@@@@@@@@@@
IT IS POSSIBLE THAT SOMEONE IS DOING SOMETHING NASTY!
Someone could be eavesdropping on you right now (man-in-the-middle attack)!
It is also possible that a host key has just been changed.
The fingerprint for the ECDSA key sent by the remote host is
SHA256:iql/71DAvox/0ep0uxNo7tO6d/XSARBjVPu4x7vTmu8.
Please contact your system administrator.
Add correct host key in /lustre2/home/toliste/.ssh/known_hosts to get rid of this message.
Offending ECDSA key in /lustre2/home/toliste/.ssh/known_hosts:140
Password authentication is disabled to avoid man-in-the-middle attacks.
Keyboard-interactive authentication is disabled to avoid man-in-the-middle attacks.
@@@@@@@@@@@@@@@@@@@@@@@@@@@@@@@@@@@@@@@@@@@@@@@@@@@@@@@@@@@
@    WARNING: REMOTE HOST IDENTIFICATION HAS CHANGED!     @
@@@@@@@@@@@@@@@@@@@@@@@@@@@@@@@@@@@@@@@@@@@@@@@@@@@@@@@@@@@
IT IS POSSIBLE THAT SOMEONE IS DOING SOMETHING NASTY!
Someone could be eavesdropping on you right now (man-in-the-middle attack)!
It is also possible that a host key has just been changed.
The fingerprint for the ECDSA key sent by the remote host is
SHA256:8EB/dta3zL65mO1pv+8d0wE2OT2buqUpy/g0J04Imvc.
Please contact your system administrator.
Add correct host key in /lustre2/home/toliste/.ssh/known_hosts to get rid of this message.
Offending ECDSA key in /lustre2/home/toliste/.ssh/known_hosts:142
Password authentication is disabled to avoid man-in-the-middle attacks.
Keyboard-interactive authentication is disabled to avoid man-in-the-middle attacks.
@@@@@@@@@@@@@@@@@@@@@@@@@@@@@@@@@@@@@@@@@@@@@@@@@@@@@@@@@@@
@    WARNING: REMOTE HOST IDENTIFICATION HAS CHANGED!     @
@@@@@@@@@@@@@@@@@@@@@@@@@@@@@@@@@@@@@@@@@@@@@@@@@@@@@@@@@@@
IT IS POSSIBLE THAT SOMEONE IS DOING SOMETHING NASTY!
Someone could be eavesdropping on you right now (man-in-the-middle attack)!
It is also possible that a host key has just been changed.
The fingerprint for the ECDSA key sent by the remote host is
SHA256:M7N4+PsNku+I1HYDN4P2eKdo7KDrdu2gTV8W6I04mak.
Please contact your system administrator.
Add correct host key in /lustre2/home/toliste/.ssh/known_hosts to get rid of this message.
Offending ECDSA key in /lustre2/home/toliste/.ssh/known_hosts:141
Password authentication is disabled to avoid man-in-the-middle attacks.
Keyboard-interactive authentication is disabled to avoid man-in-the-middle attacks.
@@@@@@@@@@@@@@@@@@@@@@@@@@@@@@@@@@@@@@@@@@@@@@@@@@@@@@@@@@@
@    WARNING: REMOTE HOST IDENTIFICATION HAS CHANGED!     @
@@@@@@@@@@@@@@@@@@@@@@@@@@@@@@@@@@@@@@@@@@@@@@@@@@@@@@@@@@@
IT IS POSSIBLE THAT SOMEONE IS DOING SOMETHING NASTY!
Someone could be eavesdropping on you right now (man-in-the-middle attack)!
It is also possible that a host key has just been changed.
The fingerprint for the ECDSA key sent by the remote host is
SHA256:r5soQIxRnmk29FTE5JOdituPXEMGmulv/v/xkbS9pcA.
Please contact your system administrator.
Add correct host key in /lustre2/home/toliste/.ssh/known_hosts to get rid of this message.
Offending ECDSA key in /lustre2/home/toliste/.ssh/known_hosts:126
Password authentication is disabled to avoid man-in-the-middle attacks.
Keyboard-interactive authentication is disabled to avoid man-in-the-middle attacks.
 (Enter /lustre1/prg/gaussian/bin/G16_C01_Linda9.2_SSE4/g16/linda-exe/l1101.exel)
 Using compressed storage, NAtomX=    51.
 Will process     52 centers per pass.
 Leave Link 1101 at Tue Feb  1 12:14:28 2022, MaxMem= 11408506880 cpu:             178.3 elap:              16.0
 (Enter /lustre1/prg/gaussian/bin/G16_C01_Linda9.2_SSE4/g16/l1102.exe)
 Symmetrizing basis deriv contribution to polar:
 IMax=3 JMax=2 DiffMx= 0.00D+00
 Leave Link 1102 at Tue Feb  1 12:14:29 2022, MaxMem= 11408506880 cpu:               2.4 elap:               0.2
@@@@@@@@@@@@@@@@@@@@@@@@@@@@@@@@@@@@@@@@@@@@@@@@@@@@@@@@@@@
@    WARNING: REMOTE HOST IDENTIFICATION HAS CHANGED!     @
@@@@@@@@@@@@@@@@@@@@@@@@@@@@@@@@@@@@@@@@@@@@@@@@@@@@@@@@@@@
IT IS POSSIBLE THAT SOMEONE IS DOING SOMETHING NASTY!
Someone could be eavesdropping on you right now (man-in-the-middle attack)!
It is also possible that a host key has just been changed.
The fingerprint for the ECDSA key sent by the remote host is
SHA256:iql/71DAvox/0ep0uxNo7tO6d/XSARBjVPu4x7vTmu8.
Please contact your system administrator.
Add correct host key in /lustre2/home/toliste/.ssh/known_hosts to get rid of this message.
Offending ECDSA key in /lustre2/home/toliste/.ssh/known_hosts:140
Password authentication is disabled to avoid man-in-the-middle attacks.
Keyboard-interactive authentication is disabled to avoid man-in-the-middle attacks.
@@@@@@@@@@@@@@@@@@@@@@@@@@@@@@@@@@@@@@@@@@@@@@@@@@@@@@@@@@@
@    WARNING: REMOTE HOST IDENTIFICATION HAS CHANGED!     @
@@@@@@@@@@@@@@@@@@@@@@@@@@@@@@@@@@@@@@@@@@@@@@@@@@@@@@@@@@@
IT IS POSSIBLE THAT SOMEONE IS DOING SOMETHING NASTY!
Someone could be eavesdropping on you right now (man-in-the-middle attack)!
It is also possible that a host key has just been changed.
The fingerprint for the ECDSA key sent by the remote host is
SHA256:r5soQIxRnmk29FTE5JOdituPXEMGmulv/v/xkbS9pcA.
Please contact your system administrator.
Add correct host key in /lustre2/home/toliste/.ssh/known_hosts to get rid of this message.
Offending ECDSA key in /lustre2/home/toliste/.ssh/known_hosts:126
Password authentication is disabled to avoid man-in-the-middle attacks.
Keyboard-interactive authentication is disabled to avoid man-in-the-middle attacks.
@@@@@@@@@@@@@@@@@@@@@@@@@@@@@@@@@@@@@@@@@@@@@@@@@@@@@@@@@@@
@    WARNING: REMOTE HOST IDENTIFICATION HAS CHANGED!     @
@@@@@@@@@@@@@@@@@@@@@@@@@@@@@@@@@@@@@@@@@@@@@@@@@@@@@@@@@@@
IT IS POSSIBLE THAT SOMEONE IS DOING SOMETHING NASTY!
Someone could be eavesdropping on you right now (man-in-the-middle attack)!
It is also possible that a host key has just been changed.
The fingerprint for the ECDSA key sent by the remote host is
SHA256:M7N4+PsNku+I1HYDN4P2eKdo7KDrdu2gTV8W6I04mak.
Please contact your system administrator.
Add correct host key in /lustre2/home/toliste/.ssh/known_hosts to get rid of this message.
Offending ECDSA key in /lustre2/home/toliste/.ssh/known_hosts:141
Password authentication is disabled to avoid man-in-the-middle attacks.
Keyboard-interactive authentication is disabled to avoid man-in-the-middle attacks.
@@@@@@@@@@@@@@@@@@@@@@@@@@@@@@@@@@@@@@@@@@@@@@@@@@@@@@@@@@@
@    WARNING: REMOTE HOST IDENTIFICATION HAS CHANGED!     @
@@@@@@@@@@@@@@@@@@@@@@@@@@@@@@@@@@@@@@@@@@@@@@@@@@@@@@@@@@@
IT IS POSSIBLE THAT SOMEONE IS DOING SOMETHING NASTY!
Someone could be eavesdropping on you right now (man-in-the-middle attack)!
It is also possible that a host key has just been changed.
The fingerprint for the ECDSA key sent by the remote host is
SHA256:8EB/dta3zL65mO1pv+8d0wE2OT2buqUpy/g0J04Imvc.
Please contact your system administrator.
Add correct host key in /lustre2/home/toliste/.ssh/known_hosts to get rid of this message.
Offending ECDSA key in /lustre2/home/toliste/.ssh/known_hosts:142
Password authentication is disabled to avoid man-in-the-middle attacks.
Keyboard-interactive authentication is disabled to avoid man-in-the-middle attacks.
 (Enter /lustre1/prg/gaussian/bin/G16_C01_Linda9.2_SSE4/g16/linda-exe/l1110.exel)
 Forming Gx(P) for the SCF density, NAtomX=    51.
 Integral derivatives from FoFJK, PRISM(SPDF).
 Do as many integral derivatives as possible in FoFJK.
 G2DrvN: MDV=   11408501491.
 G2DrvN: will do    52 centers at a time, making    1 passes.
 Calling FoFCou, ICntrl=  3107 FMM=F I1Cent=   0 AccDes= 0.00D+00.
 FoFJK:  IHMeth= 1 ICntrl=    3107 DoSepK=F KAlg= 0 I1Cent=           0 FoldK=F
 IRaf=         0 NMat=       1 IRICut=       1 DoRegI=T DoRafI=F ISym2E= 0 IDoP0=0 IntGTp=1.
 FoFCou: FMM=F IPFlag=           0 FMFlag=      100000 FMFlg1=           0
         NFxFlg=           0 DoJE=F BraDBF=F KetDBF=F FulRan=T
         wScrn=  0.000000 ICntrl=      3107 IOpCl=  0 I1Cent=           0 NGrid=           0
         NMat0=    1 NMatS0=      1 NMatT0=    0 NMatD0=    1 NMtDS0=    0 NMtDT0=    0
 Symmetry not used in FoFCou.
 NEqPCM:  Using equilibrium solvation (IEInf=0, Eps=   7.4257, EpsInf=   1.9740)
 G2PCM: DoFxE=T DoFxN=T DoGrad=T DoDP/DQ/DG/TGxP=FFFF NFrqRd=   0 IEInf=0 SqF1=F DoCFld=F IF1Alg=4.
 GePol: Maximum number of non-zero 1st derivatives   =     214
 End of G2Drv F.D. properties file   721 does not exist.
 End of G2Drv F.D. properties file   722 does not exist.
 End of G2Drv F.D. properties file   788 does not exist.
 Leave Link 1110 at Tue Feb  1 12:19:17 2022, MaxMem= 11408506880 cpu:            3320.0 elap:             284.9
@@@@@@@@@@@@@@@@@@@@@@@@@@@@@@@@@@@@@@@@@@@@@@@@@@@@@@@@@@@
@    WARNING: REMOTE HOST IDENTIFICATION HAS CHANGED!     @
@@@@@@@@@@@@@@@@@@@@@@@@@@@@@@@@@@@@@@@@@@@@@@@@@@@@@@@@@@@
IT IS POSSIBLE THAT SOMEONE IS DOING SOMETHING NASTY!
Someone could be eavesdropping on you right now (man-in-the-middle attack)!
It is also possible that a host key has just been changed.
The fingerprint for the ECDSA key sent by the remote host is
SHA256:iql/71DAvox/0ep0uxNo7tO6d/XSARBjVPu4x7vTmu8.
Please contact your system administrator.
Add correct host key in /lustre2/home/toliste/.ssh/known_hosts to get rid of this message.
Offending ECDSA key in /lustre2/home/toliste/.ssh/known_hosts:140
Password authentication is disabled to avoid man-in-the-middle attacks.
Keyboard-interactive authentication is disabled to avoid man-in-the-middle attacks.
[...]
 7,0.08632490,-0.25994322,-0.09843620,-0.00061252,0.00004614,0.00076759
 ,-0.00246717,0.00486974,0.00281015,-0.00047284,0.00172620,0.00070231,0
 .00055120,-0.00102925,-0.00071824,-0.09255744,0.27231840,0.00000073,-0
 .00006935,-0.00001855,-0.00009402,-0.00001729,0.00008287,0.00003923,0.
 00012677,0.00003088,0.00008066,-0.00002681,-0.00010926,-0.00013765,0.0
 0008303,0.00018837,-0.00001377,0.00000057,0.00001027,-0.00000658,-0.00
 000505,-0.00000575,0.00000167,-0.00000563,-0.00000167,-0.00000322,-0.0
 0000230,-0.00000198,0.00001635,-0.00001039,-0.00000741,-0.00001396,-0.
 00000249,-0.00000158,0.00030441,0.00003571,-0.00022997,-0.00018128,-0.
 00035961,0.00016031,-0.00017331,-0.00015070,0.00011862,-0.00176200,-0.
 00018912,-0.00149251,0.00036885,0.00060516,-0.00077043,-0.00006428,0.0
 0020770,0.00008678,-0.00004675,0.00005677,0.00002447,0.00004659,-0.000
 12158,-0.00014489,0.00002223,0.00002785,0.00006027,-0.00000022,-0.0000
 0260,0.00000096,-0.00000179,-0.00000056,-0.00000234,-0.00000509,0.0000
 0577,-0.00000006,0.00000053,-0.00000299,-0.00000131,-0.00000077,-0.000
 00189,0.00000066,-0.00000212,-0.00000304,-0.00000053,0.00000055,0.0000
 0043,0.00000461,-0.00006740,-0.00000444,-0.00000819,0.00066947,0.00011
 623,-0.00125223,0.00001640,-0.00000361,-0.00001713,-0.00000562,0.00000
 323,0.00000619,-0.00001058,-0.00000073,0.00000852,-0.00000191,0.000002
 90,0.00000167,0.00000341,-0.00000139,-0.00000074,-0.00000554,-0.000002
 64,0.00000614,0.00000121,0.00000094,-0.00000207,0.00000163,-0.00000214
 ,-0.00000252,-0.00000140,-0.00000117,0.00000147,-0.00000124,0.00000135
 ,0.00000153,-0.00000102,-0.00000011,0.00000068,-0.00360907,0.00919210,
 0.00794346,0.00367484,0.00216703,0.00224241,0.05106883,-0.09762491,-0.
 09651115,-0.00016067,0.00054860,-0.00060161,0.00763572,-0.02122822,-0.
 00516094,0.00642811,0.00154070,-0.00004810,-0.00015563,0.00052227,0.00
 038934,-0.06089476,0.10553958,0.09697280,-0.00000369,-0.00005163,-0.00
 002613,-0.00006572,-0.00001319,0.00006233,0.00002690,0.00008851,0.0000
 2448,0.00005859,-0.00001742,-0.00007166,-0.00009122,0.00005456,0.00013
 569,-0.00001112,-0.00000124,0.00000698,-0.00000327,-0.00000133,-0.0000
 0408,-0.00000150,-0.00000454,-0.00000250,-0.00000048,-0.00000450,-0.00
 000251,0.00001279,-0.00000322,-0.00000499,-0.00000278,-0.00000682,0.00
 000072,0.00018306,0.00006749,-0.00015925,-0.00018840,-0.00008017,0.000
 16022,0.00010889,0.00004945,-0.00008172,0.00003540,0.00084102,0.000162
 34,-0.00031150,-0.00012753,0.00008301,-0.00008604,0.00011784,0.0002251
 5,-0.00001040,0.00003538,0.00000444,0.00001459,-0.00010338,-0.00007203
 ,0.00001765,0.00001847,0.00003599,-0.00000084,-0.00000119,-0.00000017,
 -0.00000135,-0.00000045,-0.00000104,-0.00000297,0.00000501,0.00000028,
 0.00000051,-0.00000330,0.00000042,-0.00000102,-0.00000166,0.00000091,-
 0.00000154,-0.00000196,0.00000026,0.00000065,0.00000013,0.00000342,-0.
 00000301,0.00000365,0.00001922,0.00000857,0.00000872,-0.00000392,0.000
 00953,-0.00000166,-0.00001227,-0.00000368,0.00000237,0.00000378,-0.000
 00688,-0.00000046,0.00000588,-0.00000122,0.00000197,0.00000121,0.00000
 238,-0.00000092,-0.00000043,-0.00000368,-0.00000188,0.00000409,0.00000
 077,0.00000048,-0.00000132,0.00000093,-0.00000138,-0.00000170,-0.00000
 094,-0.00000077,0.00000103,-0.00000077,0.00000083,0.00000093,-0.000000
 66,-0.00000006,0.00000039,0.00265838,-0.00109678,0.00621414,-0.0024530
 3,0.01736586,0.00731601,-0.00076202,-0.00054843,-0.00006858,-0.0814523
 1,0.08441204,0.05137809,0.00405926,-0.00197205,0.00391134,0.00684692,-
 0.00878095,-0.00353154,-0.00213693,-0.00016636,-0.00273729,-0.00064934
 ,0.00008652,-0.00060239,0.07615839,-0.00000520,0.00005112,0.00003314,0
 .00006072,0.00001010,-0.00006031,-0.00002610,-0.00008248,-0.00002184,-
 0.00005392,0.00001633,0.00006626,0.00008233,-0.00004989,-0.00011984,0.
 00000936,0.00000053,-0.00000660,0.00000262,0.00000191,0.00000210,0.000
 00032,0.00000277,0.00000090,0.00000013,0.00000259,0.00000139,-0.000008
 84,0.00000272,0.00000366,0.00000040,0.00000490,-0.00000090,-0.00015864
 ,-0.00005433,0.00013832,0.00014229,0.00006401,-0.00013063,-0.00008100,
 -0.00007945,0.00004908,-0.00009259,0.00021272,0.00018666,-0.00000828,0
 .00003535,0.00003267,0.00007018,-0.00003601,-0.00009113,0.00000576,-0.
 00002567,-0.00000418,0.00000178,0.00006041,0.00005531,-0.00001394,-0.0
 0001156,-0.00002372,0.00000075,0.00000109,0.00000028,0.00000076,0.0000
 0039,0.00000149,0.00000186,-0.00000341,0.00000207,-0.00000043,0.000001
 36,0.00000102,0.00000041,0.00000107,-0.00000014,0.00000124,0.00000136,
 0.00000015,-0.00000055,-0.00000019,-0.00000240,-0.00001580,-0.00001135
 ,0.00000333,0.00000293,0.00000125,0.00000720,-0.00000894,0.00000117,0.
 00001150,0.00000316,-0.00000188,-0.00000342,0.00000630,0.00000031,-0.0
 0000555,0.00000105,-0.00000204,-0.00000115,-0.00000230,0.00000093,0.00
 000039,0.00000337,0.00000175,-0.00000382,-0.00000061,-0.00000054,0.000
 00133,-0.00000078,0.00000131,0.00000167,0.00000086,0.00000076,-0.00000
 085,0.00000074,-0.00000083,-0.00000080,0.00000070,0.00000006,-0.000000
 37,-0.00085759,0.00169291,0.00091892,-0.00255063,0.00507528,0.00307078
 ,-0.00055736,0.00003915,0.00065619,0.08442902,-0.26044826,-0.10208933,
 -0.00242408,-0.00347118,0.00287605,0.01133226,-0.01644565,-0.01367154,
 0.00021075,0.00066832,-0.00022486,0.00009154,-0.00002008,-0.00010396,-
 0.09013629,0.27261650,-0.00001067,0.00007996,0.00004645,0.00010520,0.0
 0001593,-0.00009785,-0.00004149,-0.00013677,-0.00003577,-0.00008978,0.
 00002742,0.00010952,0.00013755,-0.00008230,-0.00020040,0.00001829,0.00
 000214,-0.00000964,0.00000428,0.00000177,0.00000455,0.00000080,0.00000
 620,0.00000222,0.00000023,0.00000473,0.00000202,-0.00001640,0.00000569
 ,0.00000652,0.00000198,0.00000671,0.00000119,-0.00026824,-0.00009173,0
 .00023105,0.00028170,0.00016351,-0.00021320,-0.00025500,-0.00009925,0.
 00010994,0.00011923,-0.00102209,0.00006986,0.00021193,0.00017867,-0.00
 024533,0.00005023,-0.00018601,-0.00022562,0.00000773,-0.00004425,-0.00
 000496,0.00001631,0.00011844,0.00008384,-0.00002888,-0.00001911,-0.000
 03965,0.00000130,0.00000199,-0.00000003,0.00000190,0.00000041,0.000002
 25,0.00000372,-0.00000710,0.00000069,0.00000010,0.00000456,0.00000074,
 0.00000098,0.00000155,-0.00000045,0.00000150,0.00000245,0.00000037,-0.
 00000122,-0.00000010,-0.00000397,-0.00000005,0.00000332,0.00002511,0.0
 0000827,-0.00001796,-0.00001591,-0.00001445,0.00000225,0.00001756,0.00
 000501,-0.00000335,-0.00000547,0.00000995,0.00000055,-0.00000887,0.000
 00169,-0.00000292,-0.00000191,-0.00000373,0.00000125,0.00000064,0.0000
 0525,0.00000286,-0.00000604,-0.00000086,-0.00000068,0.00000211,-0.0000
 0114,0.00000202,0.00000272,0.00000147,0.00000111,-0.00000135,0.0000012
 3,-0.00000120,-0.00000125,0.00000106,0.00000010,-0.00000046,0.00635487
 ,0.00130058,0.00010810,0.00725654,-0.02066939,-0.00488289,-0.00000232,
 0.00074535,-0.00082774,0.05157397,-0.10166987,-0.10151059,0.00374144,0
 .00236053,0.00294407,-0.00344509,0.00988023,0.00816076,-0.00274566,0.0
 0009078,-0.00103012,-0.00060349,-0.00011528,-0.00042648,-0.05981566,0.
 10910261,0.09887107,0.00000574,-0.00005192,-0.00003465,-0.00006961,-0.
 00001148,0.00006760,0.00002749,0.00009323,0.00002471,0.00006123,-0.000
 01667,-0.00007349,-0.00009410,0.00004764,0.00013962,-0.00001039,-0.000
 00072,0.00000715,-0.00000337,-0.00000200,-0.00000249,-0.00000035,-0.00
 000374,-0.00000136,-0.00000077,-0.00000266,-0.00000183,0.00001045,-0.0
 0000418,-0.00000413,-0.00000061,-0.00000178,0.00000134,0.00017011,0.00
 006792,-0.00013898,-0.00022147,-0.00015394,0.00009058,-0.00010172,0.00
 015076,0.00008135,0.00013094,-0.00110930,-0.00001942,-0.00004362,-0.00
 005389,-0.00008829,-0.00005481,0.00010895,0.00015897,-0.00000874,0.000
 04372,0.00000135,0.00000292,-0.00009602,-0.00006621,0.00001642,0.00001
 810,0.00002843,-0.00000082,-0.00000150,0.00000045,-0.00000065,-0.00000
 058,-0.00000151,-0.00000276,0.00000437,-0.00000177,0.00000037,-0.00000
 192,-0.00000088,-0.00000054,-0.00000121,0.00000034,-0.00000144,-0.0000
 0183,-0.00000023,0.00000030,0.00000013,0.00000309,-0.00000061,-0.00001
 057,-0.00000017,0.00001430,0.00001740,-0.00000225,0.00000981,-0.000001
 06,-0.00001238,-0.00000347,0.00000209,0.00000361,-0.00000718,-0.000000
 71,0.00000627,-0.00000124,0.00000213,0.00000126,0.00000248,-0.00000073
 ,-0.00000050,-0.00000372,-0.00000190,0.00000415,0.00000069,0.00000057,
 -0.00000135,0.00000097,-0.00000131,-0.00000177,-0.00000088,-0.00000073
 ,0.00000094,-0.00000086,0.00000087,0.00000104,-0.00000066,-0.00000007,
 0.00000037,0.00230975,0.00052444,0.00650119,-0.00091918,0.00054835,0.0
 0010960,-0.00101255,-0.01817423,0.00572615,0.00398696,0.00216508,0.004
 13369,-0.06994055,-0.07307850,0.03674498,0.00696573,0.01032779,-0.0035
 4296,-0.00063055,-0.00008793,-0.00060741,-0.00202264,0.00010299,-0.002
 75980,0.00020896,0.00054395,-0.00016679,0.06337540,0.00001003,-0.00006
 484,-0.00004529,-0.00008186,-0.00001290,0.00008029,0.00003479,0.000109
 02,0.00002830,0.00007139,-0.00002144,-0.00008738,-0.00010887,0.0000653
 4,0.00015569,-0.00001176,-0.00000054,0.00000834,-0.00000339,-0.0000024
 1,-0.00000245,-0.00000027,-0.00000337,-0.00000095,-0.00000027,-0.00000
 291,-0.00000146,0.00001089,-0.00000357,-0.00000481,-0.00000131,-0.0000
 0687,0.00000099,0.00020914,0.00006701,-0.00018217,-0.00019898,-0.00009
 535,0.00018340,0.00013746,0.00011433,-0.00008488,0.00008014,-0.0001899
 4,-0.00020029,-0.00004946,-0.00003918,0.00002391,-0.00006078,0.0000653
 6,0.00010696,-0.00000614,0.00003403,0.00000294,-0.00000941,-0.00008170
 ,-0.00005741,0.00001918,0.00001536,0.00002779,-0.00000110,-0.00000153,
 -0.00000009,-0.00000088,-0.00000055,-0.00000204,-0.00000213,0.00000400
 ,-0.00000234,0.00000049,-0.00000152,-0.00000132,-0.00000042,-0.0000011
 9,0.00000008,-0.00000147,-0.00000172,-0.00000031,0.00000056,0.00000017
 ,0.00000300,0.00001133,0.00000495,-0.00000037,0.00000113,-0.00000433,-
 0.00001176,0.00001123,-0.00000148,-0.00001435,-0.00000388,0.00000242,0
 .00000420,-0.00000814,-0.00000061,0.00000715,-0.00000140,0.00000263,0.
 00000155,0.00000298,-0.00000110,-0.00000051,-0.00000427,-0.00000226,0.
 00000486,0.00000073,0.00000069,-0.00000167,0.00000100,-0.00000161,-0.0
 0000219,-0.00000107,-0.00000093,0.00000104,-0.00000100,0.00000106,0.00
 000108,-0.00000089,-0.00000008,0.00000045,0.00020341,0.00196023,-0.000
 34661,0.00047971,0.00024333,-0.00057854,0.00155663,0.00206587,-0.00183
 022,0.00254369,-0.00259980,-0.00309134,-0.07349948,-0.29100756,0.08756
 818,-0.00918854,-0.01656738,0.01096418,-0.00007431,-0.00005034,0.00009
 742,-0.00011881,0.00067377,0.00019299,-0.00045244,-0.00099126,0.000522
 34,0.07852110,0.30524500,-0.00001050,0.00006264,0.00004407,0.00008556,
 0.00001432,-0.00008281,-0.00003437,-0.00011368,-0.00002975,-0.00007687
 ,0.00002052,0.00008751,0.00011799,-0.00005684,-0.00016956,0.00001261,0
 .00000101,-0.00000804,0.00000395,0.00000245,0.00000297,0.00000006,0.00
 000440,0.00000125,0.00000073,0.00000283,0.00000180,-0.00001189,0.00000
 514,0.00000443,0.00000078,0.00000336,-0.00000135,-0.00019735,-0.000094
 51,0.00018182,0.00028618,0.00018057,-0.00017861,-0.00003163,-0.0001502
 3,-0.00024342,0.00014807,0.00130203,0.00015171,0.00003816,0.00001864,0
 .00002227,0.00007147,-0.00010098,-0.00015539,0.00000675,-0.00004877,-0
 .00000395,0.00000885,0.00011214,0.00008156,-0.00002656,-0.00002199,-0.
 00003709,0.00000150,0.00000175,-0.00000032,0.00000107,0.00000060,0.000
 00212,0.00000333,-0.00000519,0.00000213,-0.00000032,0.00000238,0.00000
 125,0.00000060,0.00000126,-0.00000020,0.00000144,0.00000194,0.00000055
 ,-0.00000054,-0.00000012,-0.00000315,-0.00001578,0.00000122,0.00000923
 ,0.00001327,-0.00000183,-0.00001614,-0.00001121,0.00000108,0.00001479,
 0.00000391,-0.00000267,-0.00000440,0.00000849,0.00000097,-0.00000765,0
 .00000143,-0.00000260,-0.00000170,-0.00000311,0.00000090,0.00000041,0.
 00000436,0.00000232,-0.00000504,-0.00000065,-0.00000067,0.00000178,-0.
 00000093,0.00000158,0.00000236,0.00000116,0.00000088,-0.00000104,0.000
 00116,-0.00000104,-0.00000115,0.00000090,0.00000009,-0.00000037,0.0063
 7233,-0.00069931,0.00013250,0.00003063,-0.00059020,-0.00086657,0.00576
 419,0.02211237,-0.00333125,0.00429838,-0.00254695,0.00214056,0.0365324
 0,0.08741076,-0.08267910,-0.00359855,-0.01310934,0.00820293,-0.0006112
 0,0.00009087,-0.00040329,-0.00273204,-0.00022402,-0.00112467,-0.000182
 89,-0.00067608,0.00027265,-0.04384816,-0.09346385,0.07922011,-0.000010
 27,-0.00000891,0.00001222,-0.00000869,-0.00000306,0.00000325,0.0000025
 9,0.00001448,0.00000533,0.00000900,-0.00000309,-0.00001262,-0.00001937
 ,0.00001158,0.00002501,0.00000085,-0.00000132,0.00000304,-0.00000238,-
 0.00000022,-0.00000016,-0.00000026,-0.00000088,-0.00000066,-0.00000096
 ,-0.00000118,-0.00000069,0.00000404,-0.00000284,-0.00000124,-0.0000059
 6,0.00000190,-0.00000017,0.00004047,0.00000281,-0.00002218,-0.00002801
 ,-0.00000744,-0.00003642,-0.00005195,0.00000457,0.00010943,-0.00059729
 ,0.00003584,-0.00056008,0.00006392,-0.00001769,-0.00009451,-0.00011421
 ,0.00002657,0.00012181,-0.00001122,0.00002160,0.00000800,0.00004258,-0
 .00005717,-0.00006839,0.00000398,0.00001248,0.00002774,0.00000043,-0.0
 0000035,0.00000004,-0.00000032,-0.00000013,-0.00000042,-0.00000209,0.0
 0000199,-0.00000148,0.00000037,-0.00000024,-0.00000014,-0.00000034,-0.
 00000067,0.00000007,-0.00000074,-0.00000074,0.,0.00000015,0.00000042,0
 .00000087,0.00003604,-0.00001775,0.00003307,0.00003801,-0.00002612,-0.
 00001009,0.00000405,-0.00000078,-0.00000416,-0.00000157,0.00000032,0.0
 0000162,-0.00000205,0.00000008,0.00000180,-0.00000023,0.00000050,0.,0.
 00000049,-0.00000038,-0.00000018,-0.00000119,-0.00000030,0.00000127,0.
 00000038,0.00000031,-0.00000041,0.00000047,-0.00000049,-0.00000045,-0.
 00000025,-0.00000029,0.00000034,-0.00000021,0.00000032,0.00000033,-0.0
 0000021,0.,0.00000023,-0.00019289,0.00010852,-0.00073650,0.00474474,-0
 .00187273,0.00308634,0.00445687,0.00200823,0.00355930,-0.00154173,0.00
 198452,0.00624119,-0.00249104,-0.00308936,0.00726303,-0.16448775,-0.01
 143625,0.15162821,-0.00018270,0.00011938,0.00030722,-0.00025533,-0.000
 10608,0.00040242,-0.00215482,-0.00000370,-0.00241478,-0.00214114,-0.00
 001426,-0.00242719,0.16485777,-0.00000349,0.00000501,0.00000673,0.0000
 0595,0.00000025,-0.00000678,-0.00000265,-0.00000746,-0.00000124,-0.000
 00521,0.00000185,0.00000576,0.00000564,-0.00000403,-0.00001120,0.00000
 181,-0.00000038,0.00000034,-0.00000034,0.00000097,0.00000103,-0.000000
 02,0.00000052,0.00000007,-0.00000042,-0.00000006,-0.00000011,-0.000000
 46,0.00000013,0.00000080,0.00000089,0.00000074,-0.00000001,-0.00001312
 ,-0.00000490,0.00001643,0.00005328,0.00003550,-0.00004032,-0.00002417,
 -0.00002848,-0.00000382,0.00000833,0.00025758,0.00002537,-0.00001624,-
 0.00005703,-0.00003041,-0.00003787,0.00003362,0.00007019,-0.00000102,0
 .00000498,0.00000038,0.00000814,-0.00001236,-0.00001191,0.00000056,0.0
 0000325,0.00000511,0.00000006,0.00000017,0.00000007,0.00000011,0.,0.00
 000007,-0.00000023,0.00000045,-0.00000192,0.00000017,0.00000046,-0.000
 00006,-0.00000020,-0.00000010,-0.00000009,-0.00000007,0.00000010,-0.00
 000003,-0.00000015,0.00000004,-0.00000028,0.00003360,0.00002523,-0.000
 00922,-0.00000552,0.00002295,0.00003606,-0.00000027,0.00000001,0.00000
 053,0.00000005,-0.00000016,-0.00000007,0.00000035,0.,-0.00000028,0.000
 00010,-0.00000010,-0.00000013,-0.00000019,0.00000004,0.00000004,0.0000
 0016,0.00000014,-0.00000018,0.,0.,0.00000005,-0.00000003,0.00000007,0.
 00000011,0.00000003,0.00000002,-0.00000003,0.00000004,-0.00000004,-0.0
 0000004,0.00000003,0.00000002,0.,0.00009301,-0.00139904,-0.00008688,-0
 .00131525,-0.00465946,0.00142870,0.00156915,-0.00399729,-0.00203518,-0
 .01801071,0.00328337,0.02158222,0.01679747,0.00616532,-0.02020417,-0.0
 1143115,-0.05878006,0.01356955,-0.00089968,-0.00002911,0.00110242,0.00
 086639,0.00011088,-0.00103295,0.00042363,0.00116562,-0.00046862,-0.000
 41850,0.00108573,0.00054986,0.01231801,0.05677501,-0.00001445,0.000057
 37,0.00004931,0.00007432,0.00001018,-0.00007510,-0.00003290,-0.0000989
 4,-0.00002340,-0.00006613,0.00002008,0.00007821,0.00009502,-0.00005501
 ,-0.00014235,0.00001251,-0.00000062,-0.00000695,0.00000306,0.00000246,
 0.00000289,-0.00000087,0.00000310,0.00000041,-0.00000035,0.00000165,0.
 00000104,-0.00000808,0.00000216,0.00000360,-0.00000430,0.00000910,-0.0
 0000148,-0.00017795,-0.00006456,0.00017988,0.00020025,0.00013059,-0.00
 017152,-0.00013346,-0.00004002,0.00013227,-0.00057635,0.00017622,-0.00
 029097,0.00013713,-0.00002915,-0.00013567,-0.00008019,-0.00009136,-0.0
 0002038,0.00000058,-0.00001821,-0.00000079,0.00003046,0.00003805,0.000
 01766,-0.00001592,-0.00000647,-0.00001222,0.00000107,0.00000145,0.0000
 0032,0.00000069,0.00000039,0.00000185,0.00000122,-0.00000316,0.0000017
 4,-0.00000038,0.00000137,0.00000135,0.00000040,0.00000097,-0.00000013,
 0.00000110,0.00000118,0.00000042,-0.00000061,0.00000008,-0.00000236,-0
 .00000115,-0.00003240,0.00003191,0.00003170,-0.00000668,0.00002269,-0.
 00000908,0.00000107,0.00001223,0.00000309,-0.00000222,-0.00000347,0.00
 000695,0.00000050,-0.00000613,0.00000123,-0.00000235,-0.00000151,-0.00
 000268,0.00000097,0.00000038,0.00000361,0.00000207,-0.00000416,-0.0000
 0055,-0.00000057,0.00000151,-0.00000076,0.00000145,0.00000196,0.000000
 97,0.00000081,-0.00000087,0.00000088,-0.00000091,-0.00000086,0.0000008
 1,0.00000007,-0.00000036,-0.00069528,-0.00007217,0.00003544,0.00320477
 ,0.00201015,0.00354546,0.00341891,-0.00269596,0.00318778,0.00587987,-0
 .00228511,-0.00354749,0.00765440,0.00375330,-0.00549545,0.15162816,0.0
 1357479,-0.22011035,0.00032697,-0.00007103,-0.00031485,0.00038973,0.00
 018478,-0.00039924,-0.00237868,0.00001896,-0.00128004,-0.00245944,0.00
 002748,-0.00122678,-0.16645027,-0.01445595,0.22596456\\-0.00000055,0.0
 0000009,-0.00000025,-0.00000064,-0.00000003,-0.00000045,-0.00000035,-0
 .00000015,-0.00000015,0.00000004,-0.00000020,0.00000007,0.00000007,0.0
 0000005,-0.00000011,0.00000104,0.00000008,0.00000060,0.00000153,-0.000
 00013,0.00000084,0.00000163,-0.00000067,0.00000086,0.00000126,-0.00000
 098,0.00000064,0.00000083,-0.00000077,0.00000040,0.00000070,-0.0000002
 5,0.00000037,0.00000018,-0.00000005,0.00000012,-0.00000001,0.00000023,
 0.00000002,0.00000009,0.00000016,0.00000013,-0.00000017,0.00000042,-0.
 00000017,-0.00000064,0.00000054,-0.00000025,-0.00000053,0.00000032,-0.
 00000021,-0.00000121,0.00000017,-0.00000066,-0.00000091,0.00000042,-0.
 00000044,-0.00000086,0.00000098,-0.00000041,-0.00000104,0.00000017,-0.
 00000058,0.00000040,-0.00000047,0.00000020,0.00000095,0.00000047,0.000
 00057,0.00000179,0.00000011,0.00000101,0.00000199,-0.00000083,0.000001
 05,0.00000136,-0.00000140,0.00000065,0.00000053,-0.00000104,0.00000022
 ,0.00000049,0.00000005,0.00000027,-0.00000093,0.00000075,-0.00000048,-
 0.00000035,-0.00000034,-0.00000027,0.00000006,-0.00000035,-0.00000001,
 -0.00000079,-0.00000048,-0.00000053,-0.00000001,-0.00000049,-0.0000000
 1,-0.00000089,-0.00000050,-0.00000049,-0.00000043,-0.00000063,-0.00000
 030,0.00000039,-0.00000032,0.00000019,-0.00000115,-0.00000033,-0.00000
 067,0.00000033,-0.00000055,0.00000015,-0.00000121,-0.00000058,-0.00000
 072,-0.00000048,-0.00000068,-0.00000031,-0.00000024,0.00000049,-0.0000
 0008,0.00000021,0.00000058,0.00000014,-0.00000065,0.00000059,-0.000000
 32,0.00000019,0.00000070,0.00000017,-0.00000063,0.00000068,-0.00000035
 ,-0.00000023,0.00000072,-0.00000006,0.00000054,0.00000057,0.00000034,-
 0.00000100,0.00000056,-0.00000050,0.00000053,0.00000075,0.00000036,-0.
 00000099,0.00000073,-0.00000050,-0.00000024,0.00000083,-0.00000006\\\@
 The archive entry for this job was punched.


 We're simply so accustomed to the marvels of everyday thought
 that we never wonder about it.
 -- Marvin Minsky in "Why people think computers are smart"
 Job cpu time:       0 days  0 hours  0 minutes 41.6 seconds.
 Elapsed time:       0 days  0 hours 32 minutes 35.5 seconds.
 File lengths (MBytes):  RWF=   1809 Int=      0 D2E=      0 Chk=     50 Scr=      1
 Normal termination of Gaussian 16 at Tue Feb  1 13:30:35 2022.
