 Entering Gaussian System, Link 0=/lustre1/prg/gaussian/bin/G16_C01_Linda9.2_SSE4/g16/g16
 Initial command:
 /lustre1/prg/gaussian/bin/G16_C01_Linda9.2_SSE4/g16/l1.exe "/lustre1/prg/webmo/data/webmo20/toliste/4417/scratch/Gau-1619878.inp" -scrdir="/lustre1/prg/webmo/data/webmo20/toliste/4417/scratch/"
 Default is to use a total of  12 processors:
                               12 via shared-memory
                                1 via Linda
 Entering Link 1 = /lustre1/prg/gaussian/bin/G16_C01_Linda9.2_SSE4/g16/l1.exe PID=   1619879.
  
 Copyright (c) 1988-2019, Gaussian, Inc.  All Rights Reserved.
  
 This is part of the Gaussian(R) 16 program.  It is based on
 the Gaussian(R) 09 system (copyright 2009, Gaussian, Inc.),
 the Gaussian(R) 03 system (copyright 2003, Gaussian, Inc.),
 the Gaussian(R) 98 system (copyright 1998, Gaussian, Inc.),
 the Gaussian(R) 94 system (copyright 1995, Gaussian, Inc.),
 the Gaussian 92(TM) system (copyright 1992, Gaussian, Inc.),
 the Gaussian 90(TM) system (copyright 1990, Gaussian, Inc.),
 the Gaussian 88(TM) system (copyright 1988, Gaussian, Inc.),
 the Gaussian 86(TM) system (copyright 1986, Carnegie Mellon
 University), and the Gaussian 82(TM) system (copyright 1983,
 Carnegie Mellon University). Gaussian is a federally registered
 trademark of Gaussian, Inc.
  
 This software contains proprietary and confidential information,
 including trade secrets, belonging to Gaussian, Inc.
  
 This software is provided under written license and may be
 used, copied, transmitted, or stored only in accord with that
 written license.
  
 The following legend is applicable only to US Government
 contracts under FAR:
  
                    RESTRICTED RIGHTS LEGEND
  
 Use, reproduction and disclosure by the US Government is
 subject to restrictions as set forth in subparagraphs (a)
 and (c) of the Commercial Computer Software - Restricted
 Rights clause in FAR 52.227-19.
  
 Gaussian, Inc.
 340 Quinnipiac St., Bldg. 40, Wallingford CT 06492
  
  
 ---------------------------------------------------------------
 Warning -- This program may not be used in any manner that
 competes with the business of Gaussian, Inc. or will provide
 assistance to any competitor of Gaussian, Inc.  The licensee
 of this program is prohibited from giving any competitor of
 Gaussian, Inc. access to this program.  By using this program,
 the user acknowledges that Gaussian, Inc. is engaged in the
 business of creating and licensing software in the field of
 computational chemistry and represents and warrants to the
 licensee that it is not a competitor of Gaussian, Inc. and that
 it will not use this program in any manner prohibited above.
 ---------------------------------------------------------------
  

 Cite this work as:
 Gaussian 16, Revision C.01,
 M. J. Frisch, G. W. Trucks, H. B. Schlegel, G. E. Scuseria, 
 M. A. Robb, J. R. Cheeseman, G. Scalmani, V. Barone, 
 G. A. Petersson, H. Nakatsuji, X. Li, M. Caricato, A. V. Marenich, 
 J. Bloino, B. G. Janesko, R. Gomperts, B. Mennucci, H. P. Hratchian, 
 J. V. Ortiz, A. F. Izmaylov, J. L. Sonnenberg, D. Williams-Young, 
 F. Ding, F. Lipparini, F. Egidi, J. Goings, B. Peng, A. Petrone, 
 T. Henderson, D. Ranasinghe, V. G. Zakrzewski, J. Gao, N. Rega, 
 G. Zheng, W. Liang, M. Hada, M. Ehara, K. Toyota, R. Fukuda, 
 J. Hasegawa, M. Ishida, T. Nakajima, Y. Honda, O. Kitao, H. Nakai, 
 T. Vreven, K. Throssell, J. A. Montgomery, Jr., J. E. Peralta, 
 F. Ogliaro, M. J. Bearpark, J. J. Heyd, E. N. Brothers, K. N. Kudin, 
 V. N. Staroverov, T. A. Keith, R. Kobayashi, J. Normand, 
 K. Raghavachari, A. P. Rendell, J. C. Burant, S. S. Iyengar, 
 J. Tomasi, M. Cossi, J. M. Millam, M. Klene, C. Adamo, R. Cammi, 
 J. W. Ochterski, R. L. Martin, K. Morokuma, O. Farkas, 
 J. B. Foresman, and D. J. Fox, Gaussian, Inc., Wallingford CT, 2019.
 
 ******************************************
 Gaussian 16:  ES64L-G16RevC.01  3-Jul-2019
                 1-Feb-2022 
 ******************************************
 %LindaWorkers=fizika57,fizika58,fizika59,fizika60,fizika61,fizika62,fizika63,fiz
 ika64
 %chk=bodipy.chk
 SetLPE:  input flags=" -opt "Tsnet.Node.lindarsharg: ssh" "
 SetLPE:    new flags=" -opt "Tsnet.Node.lindarsharg: ssh" -opt 'Tsnet.Node.lindarsharg: ssh'  -nodelist 'fizika57.fizika.bullx fizika58.fizika.bullx fizika59.fizika.bullx fizika60.fizika.bullx fizika61.fizika.bullx fizika62.fizika.bullx fizika63.fizika.bullx fizika64.fizika.bullx' -env GAUSS_MDEF=11408506880 -env GAUSS_EXEDIR="/lustre1/prg/gaussian/bin/G16_C01_Linda9.2_SSE4/g16/bsd:/lustre1/prg/gaussian/bin/G16_C01_Linda9.2_SSE4/g16/private:/lustre1/prg/gaussian/bin/G16_C01_Linda9.2_SSE4/g16""
 Will use up to    8 processors via Linda.
 ----------------------------------------------------------------------
 #p m062x cc-pvdz scrf=(cpcm,solvent=Acetone) opt=(tight,calcfc) freq n
 osymm int=ultrafine fchk
 ----------------------------------------------------------------------
 1/7=10,10=4,18=20,19=15,26=6,38=1/1,3;
 2/9=110,12=2,15=1,17=6,18=5,40=1/2;
 3/5=16,11=2,25=1,30=1,70=2101,71=2,72=19,74=-55,75=-5,140=1/1,2,3;
 4//1;
 5/5=2,38=5,53=19/2;
 8/6=4,10=90,11=11/1;
 11/6=1,8=1,9=11,15=111,16=1,31=1/1,2,10;
 10/6=1,13=1,31=1/2;
 6/7=2,8=2,9=2,10=2,28=1/1;
 7/10=1,25=1,30=1/1,2,3,16;
 1/7=10,10=4,18=20,19=15,26=6/3(2);
 2/9=110,15=1/2;
 99//99;
 2/9=110,15=1/2;
 3/5=16,11=2,25=1,30=1,70=2105,71=1,72=19,74=-55,75=-5/1,2,3;
 4/5=5,16=3,69=1/1;
 5/5=2,38=5,53=19/2;
 7/30=1/1,2,3,16;
 1/7=10,18=20,19=15,26=6/3(-5);
 2/9=110,15=1/2;
 6/7=2,8=2,9=2,10=2,19=2,28=1/1;
 99/9=1/99;
 Leave Link    1 at Tue Feb  1 12:12:12 2022, MaxMem=           0 cpu:               1.4 elap:               0.1
 (Enter /lustre1/prg/gaussian/bin/G16_C01_Linda9.2_SSE4/g16/l101.exe)
 --------------------------------------
 BDP-PP-phenyl, optimized S0 in toluene
 --------------------------------------
 Symbolic Z-matrix:
 Charge =  0 Multiplicity = 1
 N                     12.39581  -9.43047  -1.15056 
 C                     13.16878  -9.79628  -2.1725 
 C                     14.05557  -8.74748  -2.5266 
 C                     13.76915  -7.69799  -1.65404 
 C                     12.73854  -8.13438  -0.7871 
 C                     11.50525  -5.11081   0.77483 
 C                     11.87304  -3.81765   1.13784 
 C                     13.20848  -3.51879   1.4089 
 C                     14.17896  -4.51621   1.31041 
 C                     13.81942  -5.80797   0.93432 
 C                     12.47776  -6.11559   0.66545 
 C                     12.0868  -7.48754   0.27582 
 C                     11.0696  -8.15043   0.98221 
 C                     10.3545  -7.77864   2.14614 
 C                     9.52116  -8.84442   2.48425 
 C                     9.76185  -9.84664   1.5097 
 N                     10.67226  -9.43293   0.62893 
 F                     11.58821  -11.51067  -0.20317 
 B                     11.1845  -10.24286  -0.59936 
 F                     10.19173  -10.32066  -1.57008 
 H                     13.04549  -10.77447  -2.63299 
 H                     14.24571  -6.72228  -1.62079 
 H                     10.46396  -5.345     0.54926 
 H                     11.11241  -3.03959   1.20679 
 H                     13.49343  -2.50685   1.69856 
 H                     15.22226  -4.28938   1.53118 
 H                     14.57368  -6.59365   0.87378 
 H                     10.48369  -6.84625   2.68893 
 H                     9.30825  -10.83073   1.41109 
 C                     15.05147  -8.7853   -3.60914 
 C                     15.52814  -7.59782  -4.18336 
 C                     15.54458  -10.0073  -4.08947 
 C                     16.47218  -7.63155  -5.20612 
 C                     16.48434  -10.0403  -5.11694 
 C                     16.95362  -8.85304  -5.67885 
 H                     15.14086  -6.63831  -3.83677 
 H                     15.20244  -10.94271  -3.6436 
 H                     16.82842  -6.69758  -5.64237 
 H                     16.85707  -11.00041  -5.47573 
 H                     17.69054  -8.87921  -6.48211 
 C                     8.58386  -8.94185   3.61427 
 C                     8.07249  -7.78421   4.2187 
 C                     8.18352  -10.19066   4.11165 
 C                     7.18987  -7.87279   5.29191 
 C                     7.29549  -10.2784   5.18098 
 C                     6.79592  -9.12038   5.77694 
 H                     8.35648  -6.8044    3.83115 
 H                     8.58439  -11.10417   3.66934 
 H                     6.80073  -6.96132   5.74723 
 H                     6.99756  -11.25855   5.55508 
 H                     6.10196  -9.18962   6.61514 
 
 ITRead=  0  0  0  0  0  0  0  0  0  0  0  0  0  0  0  0  0  0  0  0
 ITRead=  0  0  0  0  0  0  0  0  0  0  0  0  0  0  0  0  0  0  0  0
 ITRead=  0  0  0  0  0  0  0  0  0  0  0
 MicOpt= -1 -1 -1 -1 -1 -1 -1 -1 -1 -1 -1 -1 -1 -1 -1 -1 -1 -1 -1 -1
 MicOpt= -1 -1 -1 -1 -1 -1 -1 -1 -1 -1 -1 -1 -1 -1 -1 -1 -1 -1 -1 -1
 MicOpt= -1 -1 -1 -1 -1 -1 -1 -1 -1 -1 -1
 NAtoms=     51 NQM=       51 NQMF=       0 NMMI=      0 NMMIF=      0
                NMic=       0 NMicF=      0.
                    Isotopes and Nuclear Properties:
 (Nuclear quadrupole moments (NQMom) in fm**2, nuclear magnetic moments (NMagM)
  in nuclear magnetons)

  Atom         1           2           3           4           5           6           7           8           9          10
 IAtWgt=          14          12          12          12          12          12          12          12          12          12
 AtmWgt=  14.0030740  12.0000000  12.0000000  12.0000000  12.0000000  12.0000000  12.0000000  12.0000000  12.0000000  12.0000000
 NucSpn=           2           0           0           0           0           0           0           0           0           0
 AtZEff=  -0.0000000  -0.0000000  -0.0000000  -0.0000000  -0.0000000  -0.0000000  -0.0000000  -0.0000000  -0.0000000  -0.0000000
 NQMom=    2.0440000   0.0000000   0.0000000   0.0000000   0.0000000   0.0000000   0.0000000   0.0000000   0.0000000   0.0000000
 NMagM=    0.4037610   0.0000000   0.0000000   0.0000000   0.0000000   0.0000000   0.0000000   0.0000000   0.0000000   0.0000000
 AtZNuc=   7.0000000   6.0000000   6.0000000   6.0000000   6.0000000   6.0000000   6.0000000   6.0000000   6.0000000   6.0000000

  Atom        11          12          13          14          15          16          17          18          19          20
 IAtWgt=          12          12          12          12          12          12          14          19          11          19
 AtmWgt=  12.0000000  12.0000000  12.0000000  12.0000000  12.0000000  12.0000000  14.0030740  18.9984033  11.0093053  18.9984033
 NucSpn=           0           0           0           0           0           0           2           1           3           1
 AtZEff=  -0.0000000  -0.0000000  -0.0000000  -0.0000000  -0.0000000  -0.0000000  -0.0000000  -0.0000000  -0.0000000  -0.0000000
 NQMom=    0.0000000   0.0000000   0.0000000   0.0000000   0.0000000   0.0000000   2.0440000   0.0000000   4.0590000   0.0000000
 NMagM=    0.0000000   0.0000000   0.0000000   0.0000000   0.0000000   0.0000000   0.4037610   2.6288670   2.6886370   2.6288670
 AtZNuc=   6.0000000   6.0000000   6.0000000   6.0000000   6.0000000   6.0000000   7.0000000   9.0000000   5.0000000   9.0000000

  Atom        21          22          23          24          25          26          27          28          29          30
 IAtWgt=           1           1           1           1           1           1           1           1           1          12
 AtmWgt=   1.0078250   1.0078250   1.0078250   1.0078250   1.0078250   1.0078250   1.0078250   1.0078250   1.0078250  12.0000000
 NucSpn=           1           1           1           1           1           1           1           1           1           0
 AtZEff=  -0.0000000  -0.0000000  -0.0000000  -0.0000000  -0.0000000  -0.0000000  -0.0000000  -0.0000000  -0.0000000  -0.0000000
 NQMom=    0.0000000   0.0000000   0.0000000   0.0000000   0.0000000   0.0000000   0.0000000   0.0000000   0.0000000   0.0000000
 NMagM=    2.7928460   2.7928460   2.7928460   2.7928460   2.7928460   2.7928460   2.7928460   2.7928460   2.7928460   0.0000000
 AtZNuc=   1.0000000   1.0000000   1.0000000   1.0000000   1.0000000   1.0000000   1.0000000   1.0000000   1.0000000   6.0000000

  Atom        31          32          33          34          35          36          37          38          39          40
 IAtWgt=          12          12          12          12          12           1           1           1           1           1
 AtmWgt=  12.0000000  12.0000000  12.0000000  12.0000000  12.0000000   1.0078250   1.0078250   1.0078250   1.0078250   1.0078250
 NucSpn=           0           0           0           0           0           1           1           1           1           1
 AtZEff=  -0.0000000  -0.0000000  -0.0000000  -0.0000000  -0.0000000  -0.0000000  -0.0000000  -0.0000000  -0.0000000  -0.0000000
 NQMom=    0.0000000   0.0000000   0.0000000   0.0000000   0.0000000   0.0000000   0.0000000   0.0000000   0.0000000   0.0000000
 NMagM=    0.0000000   0.0000000   0.0000000   0.0000000   0.0000000   2.7928460   2.7928460   2.7928460   2.7928460   2.7928460
 AtZNuc=   6.0000000   6.0000000   6.0000000   6.0000000   6.0000000   1.0000000   1.0000000   1.0000000   1.0000000   1.0000000

  Atom        41          42          43          44          45          46          47          48          49          50
 IAtWgt=          12          12          12          12          12          12           1           1           1           1
 AtmWgt=  12.0000000  12.0000000  12.0000000  12.0000000  12.0000000  12.0000000   1.0078250   1.0078250   1.0078250   1.0078250
 NucSpn=           0           0           0           0           0           0           1           1           1           1
 AtZEff=  -0.0000000  -0.0000000  -0.0000000  -0.0000000  -0.0000000  -0.0000000  -0.0000000  -0.0000000  -0.0000000  -0.0000000
 NQMom=    0.0000000   0.0000000   0.0000000   0.0000000   0.0000000   0.0000000   0.0000000   0.0000000   0.0000000   0.0000000
 NMagM=    0.0000000   0.0000000   0.0000000   0.0000000   0.0000000   0.0000000   2.7928460   2.7928460   2.7928460   2.7928460
 AtZNuc=   6.0000000   6.0000000   6.0000000   6.0000000   6.0000000   6.0000000   1.0000000   1.0000000   1.0000000   1.0000000

  Atom        51
 IAtWgt=           1
 AtmWgt=   1.0078250
 NucSpn=           1
 AtZEff=  -0.0000000
 NQMom=    0.0000000
 NMagM=    2.7928460
 AtZNuc=   1.0000000
 Leave Link  101 at Tue Feb  1 12:12:12 2022, MaxMem= 11408506880 cpu:               8.3 elap:               0.7
 (Enter /lustre1/prg/gaussian/bin/G16_C01_Linda9.2_SSE4/g16/l103.exe)

 GradGradGradGradGradGradGradGradGradGradGradGradGradGradGradGradGradGrad
 Berny optimization.
 Initialization pass.
                           ----------------------------
                           !    Initial Parameters    !
                           ! (Angstroms and Degrees)  !
 --------------------------                            --------------------------
 ! Name  Definition              Value          Derivative Info.                !
 --------------------------------------------------------------------------------
 ! R1    R(1,2)                  1.3325         calculate D2E/DX2 analytically  !
 ! R2    R(1,5)                  1.389          calculate D2E/DX2 analytically  !
 ! R3    R(1,19)                 1.5592         calculate D2E/DX2 analytically  !
 ! R4    R(2,3)                  1.4184         calculate D2E/DX2 analytically  !
 ! R5    R(2,21)                 1.0882         calculate D2E/DX2 analytically  !
 ! R6    R(3,4)                  1.3946         calculate D2E/DX2 analytically  !
 ! R7    R(3,30)                 1.4714         calculate D2E/DX2 analytically  !
 ! R8    R(4,5)                  1.4157         calculate D2E/DX2 analytically  !
 ! R9    R(4,22)                 1.0864         calculate D2E/DX2 analytically  !
 ! R10   R(5,12)                 1.4046         calculate D2E/DX2 analytically  !
 ! R11   R(6,7)                  1.3926         calculate D2E/DX2 analytically  !
 ! R12   R(6,11)                 1.4026         calculate D2E/DX2 analytically  !
 ! R13   R(6,23)                 1.0909         calculate D2E/DX2 analytically  !
 ! R14   R(7,8)                  1.3951         calculate D2E/DX2 analytically  !
 ! R15   R(7,24)                 1.0903         calculate D2E/DX2 analytically  !
 ! R16   R(8,9)                  1.3951         calculate D2E/DX2 analytically  !
 ! R17   R(8,25)                 1.0905         calculate D2E/DX2 analytically  !
 ! R18   R(9,10)                 1.3926         calculate D2E/DX2 analytically  !
 ! R19   R(9,26)                 1.0903         calculate D2E/DX2 analytically  !
 ! R20   R(10,11)                1.4025         calculate D2E/DX2 analytically  !
 ! R21   R(10,27)                1.0908         calculate D2E/DX2 analytically  !
 ! R22   R(11,12)                1.4788         calculate D2E/DX2 analytically  !
 ! R23   R(12,13)                1.4047         calculate D2E/DX2 analytically  !
 ! R24   R(13,14)                1.4157         calculate D2E/DX2 analytically  !
 ! R25   R(13,17)                1.3883         calculate D2E/DX2 analytically  !
 ! R26   R(14,15)                1.3945         calculate D2E/DX2 analytically  !
 ! R27   R(14,28)                1.0866         calculate D2E/DX2 analytically  !
 ! R28   R(15,16)                1.4185         calculate D2E/DX2 analytically  !
 ! R29   R(15,41)                1.4714         calculate D2E/DX2 analytically  !
 ! R30   R(16,17)                1.3326         calculate D2E/DX2 analytically  !
 ! R31   R(16,29)                1.0881         calculate D2E/DX2 analytically  !
 ! R32   R(17,19)                1.5579         calculate D2E/DX2 analytically  !
 ! R33   R(18,19)                1.3883         calculate D2E/DX2 analytically  !
 ! R34   R(19,20)                1.3907         calculate D2E/DX2 analytically  !
 ! R35   R(30,31)                1.4025         calculate D2E/DX2 analytically  !
 ! R36   R(30,32)                1.4026         calculate D2E/DX2 analytically  !
 ! R37   R(31,33)                1.3923         calculate D2E/DX2 analytically  !
 ! R38   R(31,36)                1.0912         calculate D2E/DX2 analytically  !
 ! R39   R(32,34)                1.3928         calculate D2E/DX2 analytically  !
 ! R40   R(32,37)                1.0913         calculate D2E/DX2 analytically  !
 ! R41   R(33,35)                1.3955         calculate D2E/DX2 analytically  !
 ! R42   R(33,38)                1.0907         calculate D2E/DX2 analytically  !
 ! R43   R(34,35)                1.3948         calculate D2E/DX2 analytically  !
 ! R44   R(34,39)                1.0906         calculate D2E/DX2 analytically  !
 ! R45   R(35,40)                1.0904         calculate D2E/DX2 analytically  !
 ! R46   R(41,42)                1.4025         calculate D2E/DX2 analytically  !
 ! R47   R(41,43)                1.4026         calculate D2E/DX2 analytically  !
 ! R48   R(42,44)                1.3924         calculate D2E/DX2 analytically  !
 ! R49   R(42,47)                1.0913         calculate D2E/DX2 analytically  !
 ! R50   R(43,45)                1.3927         calculate D2E/DX2 analytically  !
 ! R51   R(43,48)                1.0913         calculate D2E/DX2 analytically  !
 ! R52   R(44,46)                1.3953         calculate D2E/DX2 analytically  !
 ! R53   R(44,49)                1.0907         calculate D2E/DX2 analytically  !
 ! R54   R(45,46)                1.3949         calculate D2E/DX2 analytically  !
 ! R55   R(45,50)                1.0906         calculate D2E/DX2 analytically  !
 ! R56   R(46,51)                1.0904         calculate D2E/DX2 analytically  !
 ! A1    A(2,1,5)              108.2824         calculate D2E/DX2 analytically  !
 ! A2    A(2,1,19)             125.361          calculate D2E/DX2 analytically  !
 ! A3    A(5,1,19)             125.8283         calculate D2E/DX2 analytically  !
 ! A4    A(1,2,3)              110.5571         calculate D2E/DX2 analytically  !
 ! A5    A(1,2,21)             120.3709         calculate D2E/DX2 analytically  !
 ! A6    A(3,2,21)             129.0428         calculate D2E/DX2 analytically  !
 ! A7    A(2,3,4)              105.7749         calculate D2E/DX2 analytically  !
 ! A8    A(2,3,30)             126.003          calculate D2E/DX2 analytically  !
 ! A9    A(4,3,30)             128.2185         calculate D2E/DX2 analytically  !
 ! A10   A(3,4,5)              107.4994         calculate D2E/DX2 analytically  !
 ! A11   A(3,4,22)             127.2253         calculate D2E/DX2 analytically  !
 ! A12   A(5,4,22)             125.2713         calculate D2E/DX2 analytically  !
 ! A13   A(1,5,4)              107.8792         calculate D2E/DX2 analytically  !
 ! A14   A(1,5,12)             120.8783         calculate D2E/DX2 analytically  !
 ! A15   A(4,5,12)             131.2419         calculate D2E/DX2 analytically  !
 ! A16   A(7,6,11)             120.1606         calculate D2E/DX2 analytically  !
 ! A17   A(7,6,23)             120.355          calculate D2E/DX2 analytically  !
 ! A18   A(11,6,23)            119.4669         calculate D2E/DX2 analytically  !
 ! A19   A(6,7,8)              120.1589         calculate D2E/DX2 analytically  !
 ! A20   A(6,7,24)             119.6642         calculate D2E/DX2 analytically  !
 ! A21   A(8,7,24)             120.1766         calculate D2E/DX2 analytically  !
 ! A22   A(7,8,9)              119.9347         calculate D2E/DX2 analytically  !
 ! A23   A(7,8,25)             120.0368         calculate D2E/DX2 analytically  !
 ! A24   A(9,8,25)             120.0284         calculate D2E/DX2 analytically  !
 ! A25   A(8,9,10)             120.1744         calculate D2E/DX2 analytically  !
 ! A26   A(8,9,26)             120.1734         calculate D2E/DX2 analytically  !
 ! A27   A(10,9,26)            119.6518         calculate D2E/DX2 analytically  !
 ! A28   A(9,10,11)            120.1463         calculate D2E/DX2 analytically  !
 ! A29   A(9,10,27)            120.3035         calculate D2E/DX2 analytically  !
 ! A30   A(11,10,27)           119.5282         calculate D2E/DX2 analytically  !
 ! A31   A(6,11,10)            119.4198         calculate D2E/DX2 analytically  !
 ! A32   A(6,11,12)            120.1213         calculate D2E/DX2 analytically  !
 ! A33   A(10,11,12)           120.4583         calculate D2E/DX2 analytically  !
 ! A34   A(5,12,11)            120.2606         calculate D2E/DX2 analytically  !
 ! A35   A(5,12,13)            119.9495         calculate D2E/DX2 analytically  !
 ! A36   A(11,12,13)           119.7861         calculate D2E/DX2 analytically  !
 ! A37   A(12,13,14)           130.9416         calculate D2E/DX2 analytically  !
 ! A38   A(12,13,17)           121.0121         calculate D2E/DX2 analytically  !
 ! A39   A(14,13,17)           107.8925         calculate D2E/DX2 analytically  !
 ! A40   A(13,14,15)           107.486          calculate D2E/DX2 analytically  !
 ! A41   A(13,14,28)           125.1677         calculate D2E/DX2 analytically  !
 ! A42   A(15,14,28)           127.2829         calculate D2E/DX2 analytically  !
 ! A43   A(14,15,16)           105.784          calculate D2E/DX2 analytically  !
 ! A44   A(14,15,41)           128.1327         calculate D2E/DX2 analytically  !
 ! A45   A(16,15,41)           126.0823         calculate D2E/DX2 analytically  !
 ! A46   A(15,16,17)           110.5285         calculate D2E/DX2 analytically  !
 ! A47   A(15,16,29)           129.0904         calculate D2E/DX2 analytically  !
 ! A48   A(17,16,29)           120.3774         calculate D2E/DX2 analytically  !
 ! A49   A(13,17,16)           108.3081         calculate D2E/DX2 analytically  !
 ! A50   A(13,17,19)           125.9286         calculate D2E/DX2 analytically  !
 ! A51   A(16,17,19)           125.7566         calculate D2E/DX2 analytically  !
 ! A52   A(1,19,17)            105.2646         calculate D2E/DX2 analytically  !
 ! A53   A(1,19,18)            110.5359         calculate D2E/DX2 analytically  !
 ! A54   A(1,19,20)            109.6936         calculate D2E/DX2 analytically  !
 ! A55   A(17,19,18)           110.2056         calculate D2E/DX2 analytically  !
 ! A56   A(17,19,20)           110.1632         calculate D2E/DX2 analytically  !
 ! A57   A(18,19,20)           110.8374         calculate D2E/DX2 analytically  !
 ! A58   A(3,30,31)            120.6295         calculate D2E/DX2 analytically  !
 ! A59   A(3,30,32)            120.8171         calculate D2E/DX2 analytically  !
 ! A60   A(31,30,32)           118.5534         calculate D2E/DX2 analytically  !
 ! A61   A(30,31,33)           120.7109         calculate D2E/DX2 analytically  !
 ! A62   A(30,31,36)           119.5919         calculate D2E/DX2 analytically  !
 ! A63   A(33,31,36)           119.6876         calculate D2E/DX2 analytically  !
 ! A64   A(30,32,34)           120.6968         calculate D2E/DX2 analytically  !
 ! A65   A(30,32,37)           119.7808         calculate D2E/DX2 analytically  !
 ! A66   A(34,32,37)           119.5143         calculate D2E/DX2 analytically  !
 ! A67   A(31,33,35)           120.2645         calculate D2E/DX2 analytically  !
 ! A68   A(31,33,38)           119.6412         calculate D2E/DX2 analytically  !
 ! A69   A(35,33,38)           120.0926         calculate D2E/DX2 analytically  !
 ! A70   A(32,34,35)           120.2666         calculate D2E/DX2 analytically  !
 ! A71   A(32,34,39)           119.6122         calculate D2E/DX2 analytically  !
 ! A72   A(35,34,39)           120.1198         calculate D2E/DX2 analytically  !
 ! A73   A(33,35,34)           119.5067         calculate D2E/DX2 analytically  !
 ! A74   A(33,35,40)           120.2467         calculate D2E/DX2 analytically  !
 ! A75   A(34,35,40)           120.2466         calculate D2E/DX2 analytically  !
 ! A76   A(15,41,42)           120.5707         calculate D2E/DX2 analytically  !
 ! A77   A(15,41,43)           120.8731         calculate D2E/DX2 analytically  !
 ! A78   A(42,41,43)           118.5562         calculate D2E/DX2 analytically  !
 ! A79   A(41,42,44)           120.7177         calculate D2E/DX2 analytically  !
 ! A80   A(41,42,47)           119.5494         calculate D2E/DX2 analytically  !
 ! A81   A(44,42,47)           119.7238         calculate D2E/DX2 analytically  !
 ! A82   A(41,43,45)           120.6883         calculate D2E/DX2 analytically  !
 ! A83   A(41,43,48)           119.7853         calculate D2E/DX2 analytically  !
 ! A84   A(45,43,48)           119.5174         calculate D2E/DX2 analytically  !
 ! A85   A(42,44,46)           120.2511         calculate D2E/DX2 analytically  !
 ! A86   A(42,44,49)           119.6559         calculate D2E/DX2 analytically  !
 ! A87   A(46,44,49)           120.0911         calculate D2E/DX2 analytically  !
 ! A88   A(43,45,46)           120.2701         calculate D2E/DX2 analytically  !
 ! A89   A(43,45,50)           119.6146         calculate D2E/DX2 analytically  !
 ! A90   A(46,45,50)           120.1139         calculate D2E/DX2 analytically  !
 ! A91   A(44,46,45)           119.5154         calculate D2E/DX2 analytically  !
 ! A92   A(44,46,51)           120.2435         calculate D2E/DX2 analytically  !
 ! A93   A(45,46,51)           120.2411         calculate D2E/DX2 analytically  !
 ! D1    D(5,1,2,3)             -0.1097         calculate D2E/DX2 analytically  !
 ! D2    D(5,1,2,21)          -178.3137         calculate D2E/DX2 analytically  !
 ! D3    D(19,1,2,3)           171.9358         calculate D2E/DX2 analytically  !
 ! D4    D(19,1,2,21)           -6.2682         calculate D2E/DX2 analytically  !
 ! D5    D(2,1,5,4)              0.5961         calculate D2E/DX2 analytically  !
 ! D6    D(2,1,5,12)          -179.6415         calculate D2E/DX2 analytically  !
 ! D7    D(19,1,5,4)          -171.4025         calculate D2E/DX2 analytically  !
 ! D8    D(19,1,5,12)            8.3599         calculate D2E/DX2 analytically  !
 ! D9    D(2,1,19,17)          177.0853         calculate D2E/DX2 analytically  !
 ! D10   D(2,1,19,18)           58.1025         calculate D2E/DX2 analytically  !
 ! D11   D(2,1,19,20)          -64.4134         calculate D2E/DX2 analytically  !
 ! D12   D(5,1,19,17)          -12.2417         calculate D2E/DX2 analytically  !
 ! D13   D(5,1,19,18)         -131.2245         calculate D2E/DX2 analytically  !
 ! D14   D(5,1,19,20)          106.2596         calculate D2E/DX2 analytically  !
 ! D15   D(1,2,3,4)             -0.4224         calculate D2E/DX2 analytically  !
 ! D16   D(1,2,3,30)          -179.7701         calculate D2E/DX2 analytically  !
 ! D17   D(21,2,3,4)           177.5824         calculate D2E/DX2 analytically  !
 ! D18   D(21,2,3,30)           -1.7653         calculate D2E/DX2 analytically  !
 ! D19   D(2,3,4,5)              0.77           calculate D2E/DX2 analytically  !
 ! D20   D(2,3,4,22)          -179.9349         calculate D2E/DX2 analytically  !
 ! D21   D(30,3,4,5)          -179.9016         calculate D2E/DX2 analytically  !
 ! D22   D(30,3,4,22)           -0.6065         calculate D2E/DX2 analytically  !
 ! D23   D(2,3,30,31)          157.1071         calculate D2E/DX2 analytically  !
 ! D24   D(2,3,30,32)          -22.8841         calculate D2E/DX2 analytically  !
 ! D25   D(4,3,30,31)          -22.094          calculate D2E/DX2 analytically  !
 ! D26   D(4,3,30,32)          157.9149         calculate D2E/DX2 analytically  !
 ! D27   D(3,4,5,1)             -0.8563         calculate D2E/DX2 analytically  !
 ! D28   D(3,4,5,12)           179.415          calculate D2E/DX2 analytically  !
 ! D29   D(22,4,5,1)           179.8312         calculate D2E/DX2 analytically  !
 ! D30   D(22,4,5,12)            0.1025         calculate D2E/DX2 analytically  !
 ! D31   D(1,5,12,11)          178.9977         calculate D2E/DX2 analytically  !
 ! D32   D(1,5,12,13)           -0.2915         calculate D2E/DX2 analytically  !
 ! D33   D(4,5,12,11)           -1.3031         calculate D2E/DX2 analytically  !
 ! D34   D(4,5,12,13)          179.4076         calculate D2E/DX2 analytically  !
 ! D35   D(11,6,7,8)            -0.7124         calculate D2E/DX2 analytically  !
 ! D36   D(11,6,7,24)          179.1422         calculate D2E/DX2 analytically  !
 ! D37   D(23,6,7,8)          -179.1832         calculate D2E/DX2 analytically  !
 ! D38   D(23,6,7,24)            0.6714         calculate D2E/DX2 analytically  !
 ! D39   D(7,6,11,10)            0.4706         calculate D2E/DX2 analytically  !
 ! D40   D(7,6,11,12)         -179.8104         calculate D2E/DX2 analytically  !
 ! D41   D(23,6,11,10)         178.955          calculate D2E/DX2 analytically  !
 ! D42   D(23,6,11,12)          -1.3261         calculate D2E/DX2 analytically  !
 ! D43   D(6,7,8,9)              0.2837         calculate D2E/DX2 analytically  !
 ! D44   D(6,7,8,25)          -179.6488         calculate D2E/DX2 analytically  !
 ! D45   D(24,7,8,9)          -179.5702         calculate D2E/DX2 analytically  !
 ! D46   D(24,7,8,25)            0.4973         calculate D2E/DX2 analytically  !
 ! D47   D(7,8,9,10)             0.3865         calculate D2E/DX2 analytically  !
 ! D48   D(7,8,9,26)          -179.3789         calculate D2E/DX2 analytically  !
 ! D49   D(25,8,9,10)         -179.681          calculate D2E/DX2 analytically  !
 ! D50   D(25,8,9,26)            0.5535         calculate D2E/DX2 analytically  !
 ! D51   D(8,9,10,11)           -0.6263         calculate D2E/DX2 analytically  !
 ! D52   D(8,9,10,27)         -178.9137         calculate D2E/DX2 analytically  !
 ! D53   D(26,9,10,11)         179.1404         calculate D2E/DX2 analytically  !
 ! D54   D(26,9,10,27)           0.853          calculate D2E/DX2 analytically  !
 ! D55   D(9,10,11,6)            0.1977         calculate D2E/DX2 analytically  !
 ! D56   D(9,10,11,12)        -179.5203         calculate D2E/DX2 analytically  !
 ! D57   D(27,10,11,6)         178.4984         calculate D2E/DX2 analytically  !
 ! D58   D(27,10,11,12)         -1.2196         calculate D2E/DX2 analytically  !
 ! D59   D(6,11,12,5)          127.783          calculate D2E/DX2 analytically  !
 ! D60   D(6,11,12,13)         -52.9266         calculate D2E/DX2 analytically  !
 ! D61   D(10,11,12,5)         -52.501          calculate D2E/DX2 analytically  !
 ! D62   D(10,11,12,13)        126.7894         calculate D2E/DX2 analytically  !
 ! D63   D(5,12,13,14)         173.4905         calculate D2E/DX2 analytically  !
 ! D64   D(5,12,13,17)          -1.4198         calculate D2E/DX2 analytically  !
 ! D65   D(11,12,13,14)         -5.8021         calculate D2E/DX2 analytically  !
 ! D66   D(11,12,13,17)        179.2875         calculate D2E/DX2 analytically  !
 ! D67   D(12,13,14,15)       -175.701          calculate D2E/DX2 analytically  !
 ! D68   D(12,13,14,28)          1.5771         calculate D2E/DX2 analytically  !
 ! D69   D(17,13,14,15)         -0.2837         calculate D2E/DX2 analytically  !
 ! D70   D(17,13,14,28)        176.9944         calculate D2E/DX2 analytically  !
 ! D71   D(12,13,17,16)        176.0999         calculate D2E/DX2 analytically  !
 ! D72   D(12,13,17,19)         -4.8001         calculate D2E/DX2 analytically  !
 ! D73   D(14,13,17,16)          0.138          calculate D2E/DX2 analytically  !
 ! D74   D(14,13,17,19)        179.238          calculate D2E/DX2 analytically  !
 ! D75   D(13,14,15,16)          0.3103         calculate D2E/DX2 analytically  !
 ! D76   D(13,14,15,41)        179.9539         calculate D2E/DX2 analytically  !
 ! D77   D(28,14,15,16)       -176.8931         calculate D2E/DX2 analytically  !
 ! D78   D(28,14,15,41)          2.7505         calculate D2E/DX2 analytically  !
 ! D79   D(14,15,16,17)         -0.2352         calculate D2E/DX2 analytically  !
 ! D80   D(14,15,16,29)       -179.5235         calculate D2E/DX2 analytically  !
 ! D81   D(41,15,16,17)       -179.8884         calculate D2E/DX2 analytically  !
 ! D82   D(41,15,16,29)          0.8234         calculate D2E/DX2 analytically  !
 ! D83   D(14,15,41,42)         23.1937         calculate D2E/DX2 analytically  !
 ! D84   D(14,15,41,43)       -156.7248         calculate D2E/DX2 analytically  !
 ! D85   D(16,15,41,42)       -157.2306         calculate D2E/DX2 analytically  !
 ! D86   D(16,15,41,43)         22.8509         calculate D2E/DX2 analytically  !
 ! D87   D(15,16,17,13)          0.0603         calculate D2E/DX2 analytically  !
 ! D88   D(15,16,17,19)       -179.0417         calculate D2E/DX2 analytically  !
 ! D89   D(29,16,17,13)        179.4199         calculate D2E/DX2 analytically  !
 ! D90   D(29,16,17,19)          0.318          calculate D2E/DX2 analytically  !
 ! D91   D(13,17,19,1)          10.466          calculate D2E/DX2 analytically  !
 ! D92   D(13,17,19,18)        129.6692         calculate D2E/DX2 analytically  !
 ! D93   D(13,17,19,20)       -107.7197         calculate D2E/DX2 analytically  !
 ! D94   D(16,17,19,1)        -170.587          calculate D2E/DX2 analytically  !
 ! D95   D(16,17,19,18)        -51.3838         calculate D2E/DX2 analytically  !
 ! D96   D(16,17,19,20)         71.2274         calculate D2E/DX2 analytically  !
 ! D97   D(3,30,31,33)         179.8858         calculate D2E/DX2 analytically  !
 ! D98   D(3,30,31,36)          -1.2425         calculate D2E/DX2 analytically  !
 ! D99   D(32,30,31,33)         -0.1228         calculate D2E/DX2 analytically  !
 ! D100  D(32,30,31,36)        178.7489         calculate D2E/DX2 analytically  !
 ! D101  D(3,30,32,34)         179.8115         calculate D2E/DX2 analytically  !
 ! D102  D(3,30,32,37)          -1.2298         calculate D2E/DX2 analytically  !
 ! D103  D(31,30,32,34)         -0.1799         calculate D2E/DX2 analytically  !
 ! D104  D(31,30,32,37)        178.7789         calculate D2E/DX2 analytically  !
 ! D105  D(30,31,33,35)          0.2883         calculate D2E/DX2 analytically  !
 ! D106  D(30,31,33,38)        179.8003         calculate D2E/DX2 analytically  !
 ! D107  D(36,31,33,35)       -178.5824         calculate D2E/DX2 analytically  !
 ! D108  D(36,31,33,38)          0.9296         calculate D2E/DX2 analytically  !
 ! D109  D(30,32,34,35)          0.3189         calculate D2E/DX2 analytically  !
 ! D110  D(30,32,34,39)        179.8983         calculate D2E/DX2 analytically  !
 ! D111  D(37,32,34,35)       -178.6426         calculate D2E/DX2 analytically  !
 ! D112  D(37,32,34,39)          0.9368         calculate D2E/DX2 analytically  !
 ! D113  D(31,33,35,34)         -0.1492         calculate D2E/DX2 analytically  !
 ! D114  D(31,33,35,40)        179.7982         calculate D2E/DX2 analytically  !
 ! D115  D(38,33,35,34)       -179.6589         calculate D2E/DX2 analytically  !
 ! D116  D(38,33,35,40)          0.2884         calculate D2E/DX2 analytically  !
 ! D117  D(32,34,35,33)         -0.1523         calculate D2E/DX2 analytically  !
 ! D118  D(32,34,35,40)        179.9004         calculate D2E/DX2 analytically  !
 ! D119  D(39,34,35,33)       -179.7295         calculate D2E/DX2 analytically  !
 ! D120  D(39,34,35,40)          0.3231         calculate D2E/DX2 analytically  !
 ! D121  D(15,41,42,44)       -179.7208         calculate D2E/DX2 analytically  !
 ! D122  D(15,41,42,47)          1.3761         calculate D2E/DX2 analytically  !
 ! D123  D(43,41,42,44)          0.1995         calculate D2E/DX2 analytically  !
 ! D124  D(43,41,42,47)       -178.7035         calculate D2E/DX2 analytically  !
 ! D125  D(15,41,43,45)       -179.9624         calculate D2E/DX2 analytically  !
 ! D126  D(15,41,43,48)          1.1335         calculate D2E/DX2 analytically  !
 ! D127  D(42,41,43,45)          0.1175         calculate D2E/DX2 analytically  !
 ! D128  D(42,41,43,48)       -178.7866         calculate D2E/DX2 analytically  !
 ! D129  D(41,42,44,46)         -0.342          calculate D2E/DX2 analytically  !
 ! D130  D(41,42,44,49)       -179.8389         calculate D2E/DX2 analytically  !
 ! D131  D(47,42,44,46)        178.5591         calculate D2E/DX2 analytically  !
 ! D132  D(47,42,44,49)         -0.9377         calculate D2E/DX2 analytically  !
 ! D133  D(41,43,45,46)         -0.2938         calculate D2E/DX2 analytically  !
 ! D134  D(41,43,45,50)       -179.8726         calculate D2E/DX2 analytically  !
 ! D135  D(48,43,45,46)        178.6132         calculate D2E/DX2 analytically  !
 ! D136  D(48,43,45,50)         -0.9656         calculate D2E/DX2 analytically  !
 ! D137  D(42,44,46,45)          0.164          calculate D2E/DX2 analytically  !
 ! D138  D(42,44,46,51)       -179.7833         calculate D2E/DX2 analytically  !
 ! D139  D(49,44,46,45)        179.6587         calculate D2E/DX2 analytically  !
 ! D140  D(49,44,46,51)         -0.2887         calculate D2E/DX2 analytically  !
 ! D141  D(43,45,46,44)          0.1517         calculate D2E/DX2 analytically  !
 ! D142  D(43,45,46,51)       -179.901          calculate D2E/DX2 analytically  !
 ! D143  D(50,45,46,44)        179.7283         calculate D2E/DX2 analytically  !
 ! D144  D(50,45,46,51)         -0.3243         calculate D2E/DX2 analytically  !
 --------------------------------------------------------------------------------
 Trust Radius=3.00D-01 FncErr=5.00D-06 GrdErr=5.00D-06 EigMax=2.50D+02 EigMin=1.00D-04
 Number of steps in this run=    303 maximum allowed number of steps=    306.
 GradGradGradGradGradGradGradGradGradGradGradGradGradGradGradGradGradGrad

 Leave Link  103 at Tue Feb  1 12:12:12 2022, MaxMem= 11408506880 cpu:               0.3 elap:               0.0
 (Enter /lustre1/prg/gaussian/bin/G16_C01_Linda9.2_SSE4/g16/l202.exe)
 Symmetry turned off by external request.
 Stoichiometry    C27H19BF2N2
 Framework group  C1[X(C27H19BF2N2)]
 Deg. of freedom   147
 Full point group                 C1      NOp   1
                          Input orientation:                          
 ---------------------------------------------------------------------
 Center     Atomic      Atomic             Coordinates (Angstroms)
 Number     Number       Type             X           Y           Z
 ---------------------------------------------------------------------
      1          7           0       12.395811   -9.430470   -1.150557
      2          6           0       13.168782   -9.796283   -2.172500
      3          6           0       14.055571   -8.747484   -2.526599
      4          6           0       13.769149   -7.697992   -1.654043
      5          6           0       12.738539   -8.134384   -0.787097
      6          6           0       11.505250   -5.110809    0.774831
      7          6           0       11.873039   -3.817651    1.137842
      8          6           0       13.208484   -3.518786    1.408904
      9          6           0       14.178961   -4.516210    1.310414
     10          6           0       13.819421   -5.807974    0.934324
     11          6           0       12.477765   -6.115595    0.665446
     12          6           0       12.086797   -7.487544    0.275819
     13          6           0       11.069602   -8.150425    0.982211
     14          6           0       10.354497   -7.778637    2.146142
     15          6           0        9.521158   -8.844419    2.484251
     16          6           0        9.761846   -9.846635    1.509702
     17          7           0       10.672263   -9.432927    0.628926
     18          9           0       11.588215  -11.510670   -0.203172
     19          5           0       11.184504  -10.242864   -0.599361
     20          9           0       10.191729  -10.320660   -1.570082
     21          1           0       13.045490  -10.774465   -2.632987
     22          1           0       14.245705   -6.722279   -1.620790
     23          1           0       10.463965   -5.345001    0.549261
     24          1           0       11.112409   -3.039591    1.206786
     25          1           0       13.493434   -2.506847    1.698555
     26          1           0       15.222259   -4.289380    1.531182
     27          1           0       14.573676   -6.593647    0.873777
     28          1           0       10.483693   -6.846251    2.688930
     29          1           0        9.308246  -10.830733    1.411087
     30          6           0       15.051465   -8.785296   -3.609142
     31          6           0       15.528135   -7.597821   -4.183362
     32          6           0       15.544581  -10.007298   -4.089467
     33          6           0       16.472185   -7.631546   -5.206120
     34          6           0       16.484336  -10.040295   -5.116939
     35          6           0       16.953621   -8.853044   -5.678849
     36          1           0       15.140855   -6.638307   -3.836766
     37          1           0       15.202442  -10.942714   -3.643597
     38          1           0       16.828422   -6.697575   -5.642372
     39          1           0       16.857069  -11.000412   -5.475728
     40          1           0       17.690538   -8.879213   -6.482109
     41          6           0        8.583865   -8.941845    3.614265
     42          6           0        8.072495   -7.784206    4.218701
     43          6           0        8.183517  -10.190659    4.111655
     44          6           0        7.189865   -7.872789    5.291913
     45          6           0        7.295493  -10.278404    5.180985
     46          6           0        6.795919   -9.120380    5.776941
     47          1           0        8.356477   -6.804399    3.831154
     48          1           0        8.584389  -11.104169    3.669337
     49          1           0        6.800731   -6.961319    5.747235
     50          1           0        6.997561  -11.258554    5.555075
     51          1           0        6.101955   -9.189622    6.615141
 ---------------------------------------------------------------------
 Rotational constants (GHZ):           0.2450844           0.0709351           0.0567567
 Leave Link  202 at Tue Feb  1 12:12:13 2022, MaxMem= 11408506880 cpu:               0.1 elap:               0.0
 (Enter /lustre1/prg/gaussian/bin/G16_C01_Linda9.2_SSE4/g16/l301.exe)
 Standard basis: CC-pVDZ (5D, 7F)
 Ernie: Thresh=  0.10000D-02 Tol=  0.10000D-05 Strict=F.
 Ernie:  64 primitive shells out of 799 were deleted.
   543 basis functions,  1189 primitive gaussians,   575 cartesian basis functions
   109 alpha electrons      109 beta electrons
       nuclear repulsion energy      2847.9515245973 Hartrees.
 IExCor= 4336 DFT=T Ex+Corr=M062X ExCW=0 ScaHFX=  0.540000
 ScaDFX=  1.000000  1.000000  1.000000  1.000000 ScalE2=  1.000000  1.000000
 IRadAn=      5 IRanWt=     -1 IRanGd=            0 ICorTp=0 IEmpDi=  4
 NAtoms=   51 NActive=   51 NUniq=   51 SFac= 1.00D+00 NAtFMM=   60 NAOKFM=F Big=F
 Integral buffers will be    131072 words long.
 Raffenetti 2 integral format.
 Two-electron integral symmetry is turned off.
 Force inversion solution in PCM.
 ------------------------------------------------------------------------------
 Polarizable Continuum Model (PCM)
 =================================
 Model                : C-PCM.
 Atomic radii         : UFF (Universal Force Field).
 Polarization charges : Total charges.
 Charge compensation  : None.
 Solution method      : Matrix inversion.
 Cavity type          : Scaled VdW (van der Waals Surface) (Alpha=1.100).
 Cavity algorithm     : GePol (No added spheres)
                        Default sphere list used, NSphG=   51.
                        Lebedev-Laikov grids with approx.  5.0 points / Ang**2.
                        Smoothing algorithm: York/Karplus (Gamma=1.0000).
                        Polarization charges: spherical gaussians, with
                                              point-specific exponents (IZeta= 3).
                        Self-potential: point-specific (ISelfS= 7).
                        Self-field    : sphere-specific E.n sum rule (ISelfD= 2).
 1st derivatives      : Analytical E(r).r(x)/FMM algorithm (CHGder, D1EAlg=3).
                        Cavity 1st derivative terms included.
 2nd derivatives      : Analytical E(r).r(xy)/FMM algorithm (CHGder, D2EAlg=3).
                        Cavity 2nd derivative terms included.
 Solvent              : Acetone, Eps=  20.493000 Eps(inf)=   1.846337
 ------------------------------------------------------------------------------
 GePol: Number of generator spheres                  =      51
 GePol: Total number of spheres                      =      51
 GePol: Number of exposed spheres                    =      51 (100.00%)
 GePol: Number of points                             =    3807
 GePol: Average weight of points                     =       0.13
 GePol: Minimum weight of points                     =   0.16D-11
 GePol: Maximum weight of points                     =    0.20577
 GePol: Number of points with low weight             =     260
 GePol: Fraction of low-weight points (<1% of avg)   =       6.83%
 GePol: Cavity surface area                          =    493.787 Ang**2
 GePol: Cavity volume                                =    555.252 Ang**3
 Leave Link  301 at Tue Feb  1 12:12:13 2022, MaxMem= 11408506880 cpu:               1.1 elap:               0.1
@@@@@@@@@@@@@@@@@@@@@@@@@@@@@@@@@@@@@@@@@@@@@@@@@@@@@@@@@@@
@    WARNING: REMOTE HOST IDENTIFICATION HAS CHANGED!     @
@@@@@@@@@@@@@@@@@@@@@@@@@@@@@@@@@@@@@@@@@@@@@@@@@@@@@@@@@@@
IT IS POSSIBLE THAT SOMEONE IS DOING SOMETHING NASTY!
Someone could be eavesdropping on you right now (man-in-the-middle attack)!
It is also possible that a host key has just been changed.
The fingerprint for the ECDSA key sent by the remote host is
SHA256:UUwO5PXL1B33HJhaRANVDfAbXPAFCg3n0eIbMQ8SsmA.
Please contact your system administrator.
Add correct host key in /lustre2/home/toliste/.ssh/known_hosts to get rid of this message.
Offending ECDSA key in /lustre2/home/toliste/.ssh/known_hosts:152
Password authentication is disabled to avoid man-in-the-middle attacks.
Keyboard-interactive authentication is disabled to avoid man-in-the-middle attacks.
@@@@@@@@@@@@@@@@@@@@@@@@@@@@@@@@@@@@@@@@@@@@@@@@@@@@@@@@@@@
@    WARNING: REMOTE HOST IDENTIFICATION HAS CHANGED!     @
@@@@@@@@@@@@@@@@@@@@@@@@@@@@@@@@@@@@@@@@@@@@@@@@@@@@@@@@@@@
IT IS POSSIBLE THAT SOMEONE IS DOING SOMETHING NASTY!
Someone could be eavesdropping on you right now (man-in-the-middle attack)!
It is also possible that a host key has just been changed.
The fingerprint for the ECDSA key sent by the remote host is
SHA256:1EgGnc29sWYQbFCYakRwgubaxrDAlpRi2ByFyb5Lj7g.
Please contact your system administrator.
Add correct host key in /lustre2/home/toliste/.ssh/known_hosts to get rid of this message.
Offending ECDSA key in /lustre2/home/toliste/.ssh/known_hosts:154
Password authentication is disabled to avoid man-in-the-middle attacks.
Keyboard-interactive authentication is disabled to avoid man-in-the-middle attacks.
@@@@@@@@@@@@@@@@@@@@@@@@@@@@@@@@@@@@@@@@@@@@@@@@@@@@@@@@@@@
@    WARNING: REMOTE HOST IDENTIFICATION HAS CHANGED!     @
@@@@@@@@@@@@@@@@@@@@@@@@@@@@@@@@@@@@@@@@@@@@@@@@@@@@@@@@@@@
IT IS POSSIBLE THAT SOMEONE IS DOING SOMETHING NASTY!
Someone could be eavesdropping on you right now (man-in-the-middle attack)!
It is also possible that a host key has just been changed.
The fingerprint for the ECDSA key sent by the remote host is
SHA256:yPArVvj5wOhEloJrCb/xVGzzpZk0QWZ8LITIW4qfddA.
Please contact your system administrator.
Add correct host key in /lustre2/home/toliste/.ssh/known_hosts to get rid of this message.
Offending ECDSA key in /lustre2/home/toliste/.ssh/known_hosts:127
Password authentication is disabled to avoid man-in-the-middle attacks.
Keyboard-interactive authentication is disabled to avoid man-in-the-middle attacks.
@@@@@@@@@@@@@@@@@@@@@@@@@@@@@@@@@@@@@@@@@@@@@@@@@@@@@@@@@@@
@    WARNING: REMOTE HOST IDENTIFICATION HAS CHANGED!     @
@@@@@@@@@@@@@@@@@@@@@@@@@@@@@@@@@@@@@@@@@@@@@@@@@@@@@@@@@@@
IT IS POSSIBLE THAT SOMEONE IS DOING SOMETHING NASTY!
Someone could be eavesdropping on you right now (man-in-the-middle attack)!
It is also possible that a host key has just been changed.
The fingerprint for the ECDSA key sent by the remote host is
SHA256:M4yULT9TxhDV5BPO1pZVupvKkKHa8uDjQnSEXviXJSw.
Please contact your system administrator.
Add correct host key in /lustre2/home/toliste/.ssh/known_hosts to get rid of this message.
Offending ECDSA key in /lustre2/home/toliste/.ssh/known_hosts:151
Password authentication is disabled to avoid man-in-the-middle attacks.
@@@@@@@@@@@@@@@@@@@@@@@@@@@@@@@@@@@@@@@@@@@@@@@@@@@@@@@@@@@
Keyboard-interactive authentication is disabled to avoid man-in-the-middle attacks.
@    WARNING: REMOTE HOST IDENTIFICATION HAS CHANGED!     @
@@@@@@@@@@@@@@@@@@@@@@@@@@@@@@@@@@@@@@@@@@@@@@@@@@@@@@@@@@@
IT IS POSSIBLE THAT SOMEONE IS DOING SOMETHING NASTY!
Someone could be eavesdropping on you right now (man-in-the-middle attack)!
It is also possible that a host key has just been changed.
The fingerprint for the ECDSA key sent by the remote host is
SHA256:+yCn7Por1JJyZxZqPT2vdZd4YCKbfu31iTw0V2f26lk.
Please contact your system administrator.
Add correct host key in /lustre2/home/toliste/.ssh/known_hosts to get rid of this message.
Offending ECDSA key in /lustre2/home/toliste/.ssh/known_hosts:150
Password authentication is disabled to avoid man-in-the-middle attacks.
Keyboard-interactive authentication is disabled to avoid man-in-the-middle attacks.
@@@@@@@@@@@@@@@@@@@@@@@@@@@@@@@@@@@@@@@@@@@@@@@@@@@@@@@@@@@
@    WARNING: REMOTE HOST IDENTIFICATION HAS CHANGED!     @
@@@@@@@@@@@@@@@@@@@@@@@@@@@@@@@@@@@@@@@@@@@@@@@@@@@@@@@@@@@
IT IS POSSIBLE THAT SOMEONE IS DOING SOMETHING NASTY!
Someone could be eavesdropping on you right now (man-in-the-middle attack)!
It is also possible that a host key has just been changed.
The fingerprint for the ECDSA key sent by the remote host is
SHA256:6zgCM3dgCve16Dp/6RkC19T31lBN5cM9JsR2Baj34h8.
Please contact your system administrator.
Add correct host key in /lustre2/home/toliste/.ssh/known_hosts to get rid of this message.
Offending ECDSA key in /lustre2/home/toliste/.ssh/known_hosts:129
Password authentication is disabled to avoid man-in-the-middle attacks.
Keyboard-interactive authentication is disabled to avoid man-in-the-middle attacks.
@@@@@@@@@@@@@@@@@@@@@@@@@@@@@@@@@@@@@@@@@@@@@@@@@@@@@@@@@@@
@    WARNING: REMOTE HOST IDENTIFICATION HAS CHANGED!     @
@@@@@@@@@@@@@@@@@@@@@@@@@@@@@@@@@@@@@@@@@@@@@@@@@@@@@@@@@@@
IT IS POSSIBLE THAT SOMEONE IS DOING SOMETHING NASTY!
Someone could be eavesdropping on you right now (man-in-the-middle attack)!
It is also possible that a host key has just been changed.
The fingerprint for the ECDSA key sent by the remote host is
SHA256:iangSMHuBdmzKvH4uwYyc1d4zSR3fTAjBfz7hFypF34.
Please contact your system administrator.
Add correct host key in /lustre2/home/toliste/.ssh/known_hosts to get rid of this message.
Offending ECDSA key in /lustre2/home/toliste/.ssh/known_hosts:153
Password authentication is disabled to avoid man-in-the-middle attacks.
Keyboard-interactive authentication is disabled to avoid man-in-the-middle attacks.
 (Enter /lustre1/prg/gaussian/bin/G16_C01_Linda9.2_SSE4/g16/linda-exe/l302.exel)
 NPDir=0 NMtPBC=     1 NCelOv=     1 NCel=       1 NClECP=     1 NCelD=      1
         NCelK=      1 NCelE2=     1 NClLst=     1 CellRange=     0.0.
 One-electron integrals computed using PRISM.
 NBasis=   543 RedAO= T EigKep=  2.18D-04  NBF=   543
 NBsUse=   543 1.00D-06 EigRej= -1.00D+00 NBFU=   543
 Precomputing XC quadrature grid using
 IXCGrd= 4 IRadAn=           5 IRanWt=          -1 IRanGd=           0 AccXCQ= 0.00D+00.
 Generated NRdTot=       0 NPtTot=           0 NUsed=           0 NTot=          32
 NSgBfM=   557   557   557   557   557 MxSgAt=    51 MxSgA2=    51.
 Leave Link  302 at Tue Feb  1 12:12:18 2022, MaxMem= 11408506880 cpu:              34.8 elap:               3.0
 (Enter /lustre1/prg/gaussian/bin/G16_C01_Linda9.2_SSE4/g16/l303.exe)
 DipDrv:  MaxL=1.
 Leave Link  303 at Tue Feb  1 12:12:19 2022, MaxMem= 11408506880 cpu:               2.7 elap:               0.4
@@@@@@@@@@@@@@@@@@@@@@@@@@@@@@@@@@@@@@@@@@@@@@@@@@@@@@@@@@@
@    WARNING: REMOTE HOST IDENTIFICATION HAS CHANGED!     @
@@@@@@@@@@@@@@@@@@@@@@@@@@@@@@@@@@@@@@@@@@@@@@@@@@@@@@@@@@@
IT IS POSSIBLE THAT SOMEONE IS DOING SOMETHING NASTY!
Someone could be eavesdropping on you right now (man-in-the-middle attack)!
It is also possible that a host key has just been changed.
@@@@@@@@@@@@@@@@@@@@@@@@@@@@@@@@@@@@@@@@@@@@@@@@@@@@@@@@@@@
The fingerprint for the ECDSA key sent by the remote host is
SHA256:iangSMHuBdmzKvH4uwYyc1d4zSR3fTAjBfz7hFypF34.
@    WARNING: REMOTE HOST IDENTIFICATION HAS CHANGED!     @
Please contact your system administrator.
@@@@@@@@@@@@@@@@@@@@@@@@@@@@@@@@@@@@@@@@@@@@@@@@@@@@@@@@@@@
IT IS POSSIBLE THAT SOMEONE IS DOING SOMETHING NASTY!
Add correct host key in /lustre2/home/toliste/.ssh/known_hosts to get rid of this message.
Someone could be eavesdropping on you right now (man-in-the-middle attack)!
Offending ECDSA key in /lustre2/home/toliste/.ssh/known_hosts:153
It is also possible that a host key has just been changed.
Password authentication is disabled to avoid man-in-the-middle attacks.
The fingerprint for the ECDSA key sent by the remote host is
SHA256:+yCn7Por1JJyZxZqPT2vdZd4YCKbfu31iTw0V2f26lk.
Keyboard-interactive authentication is disabled to avoid man-in-the-middle attacks.
Please contact your system administrator.
Add correct host key in /lustre2/home/toliste/.ssh/known_hosts to get rid of this message.
Offending ECDSA key in /lustre2/home/toliste/.ssh/known_hosts:150
Password authentication is disabled to avoid man-in-the-middle attacks.
Keyboard-interactive authentication is disabled to avoid man-in-the-middle attacks.
@@@@@@@@@@@@@@@@@@@@@@@@@@@@@@@@@@@@@@@@@@@@@@@@@@@@@@@@@@@
@    WARNING: REMOTE HOST IDENTIFICATION HAS CHANGED!     @
@@@@@@@@@@@@@@@@@@@@@@@@@@@@@@@@@@@@@@@@@@@@@@@@@@@@@@@@@@@
IT IS POSSIBLE THAT SOMEONE IS DOING SOMETHING NASTY!
Someone could be eavesdropping on you right now (man-in-the-middle attack)!
It is also possible that a host key has just been changed.
The fingerprint for the ECDSA key sent by the remote host is
SHA256:yPArVvj5wOhEloJrCb/xVGzzpZk0QWZ8LITIW4qfddA.
Please contact your system administrator.
Add correct host key in /lustre2/home/toliste/.ssh/known_hosts to get rid of this message.
Offending ECDSA key in /lustre2/home/toliste/.ssh/known_hosts:127
Password authentication is disabled to avoid man-in-the-middle attacks.
Keyboard-interactive authentication is disabled to avoid man-in-the-middle attacks.
@@@@@@@@@@@@@@@@@@@@@@@@@@@@@@@@@@@@@@@@@@@@@@@@@@@@@@@@@@@
@    WARNING: REMOTE HOST IDENTIFICATION HAS CHANGED!     @
@@@@@@@@@@@@@@@@@@@@@@@@@@@@@@@@@@@@@@@@@@@@@@@@@@@@@@@@@@@
IT IS POSSIBLE THAT SOMEONE IS DOING SOMETHING NASTY!
Someone could be eavesdropping on you right now (man-in-the-middle attack)!
It is also possible that a host key has just been changed.
The fingerprint for the ECDSA key sent by the remote host is
SHA256:1EgGnc29sWYQbFCYakRwgubaxrDAlpRi2ByFyb5Lj7g.
Please contact your system administrator.
@@@@@@@@@@@@@@@@@@@@@@@@@@@@@@@@@@@@@@@@@@@@@@@@@@@@@@@@@@@
Add correct host key in /lustre2/home/toliste/.ssh/known_hosts to get rid of this message.
@    WARNING: REMOTE HOST IDENTIFICATION HAS CHANGED!     @
@@@@@@@@@@@@@@@@@@@@@@@@@@@@@@@@@@@@@@@@@@@@@@@@@@@@@@@@@@@
Offending ECDSA key in /lustre2/home/toliste/.ssh/known_hosts:154
IT IS POSSIBLE THAT SOMEONE IS DOING SOMETHING NASTY!
Password authentication is disabled to avoid man-in-the-middle attacks.
Someone could be eavesdropping on you right now (man-in-the-middle attack)!
Keyboard-interactive authentication is disabled to avoid man-in-the-middle attacks.
It is also possible that a host key has just been changed.
The fingerprint for the ECDSA key sent by the remote host is
SHA256:6zgCM3dgCve16Dp/6RkC19T31lBN5cM9JsR2Baj34h8.
Please contact your system administrator.
Add correct host key in /lustre2/home/toliste/.ssh/known_hosts to get rid of this message.
Offending ECDSA key in /lustre2/home/toliste/.ssh/known_hosts:129
Password authentication is disabled to avoid man-in-the-middle attacks.
Keyboard-interactive authentication is disabled to avoid man-in-the-middle attacks.
@@@@@@@@@@@@@@@@@@@@@@@@@@@@@@@@@@@@@@@@@@@@@@@@@@@@@@@@@@@
@    WARNING: REMOTE HOST IDENTIFICATION HAS CHANGED!     @
@@@@@@@@@@@@@@@@@@@@@@@@@@@@@@@@@@@@@@@@@@@@@@@@@@@@@@@@@@@
IT IS POSSIBLE THAT SOMEONE IS DOING SOMETHING NASTY!
Someone could be eavesdropping on you right now (man-in-the-middle attack)!
It is also possible that a host key has just been changed.
The fingerprint for the ECDSA key sent by the remote host is
SHA256:UUwO5PXL1B33HJhaRANVDfAbXPAFCg3n0eIbMQ8SsmA.
Please contact your system administrator.
Add correct host key in /lustre2/home/toliste/.ssh/known_hosts to get rid of this message.
Offending ECDSA key in /lustre2/home/toliste/.ssh/known_hosts:152
Password authentication is disabled to avoid man-in-the-middle attacks.
Keyboard-interactive authentication is disabled to avoid man-in-the-middle attacks.
@@@@@@@@@@@@@@@@@@@@@@@@@@@@@@@@@@@@@@@@@@@@@@@@@@@@@@@@@@@
@    WARNING: REMOTE HOST IDENTIFICATION HAS CHANGED!     @
@@@@@@@@@@@@@@@@@@@@@@@@@@@@@@@@@@@@@@@@@@@@@@@@@@@@@@@@@@@
IT IS POSSIBLE THAT SOMEONE IS DOING SOMETHING NASTY!
Someone could be eavesdropping on you right now (man-in-the-middle attack)!
It is also possible that a host key has just been changed.
The fingerprint for the ECDSA key sent by the remote host is
SHA256:M4yULT9TxhDV5BPO1pZVupvKkKHa8uDjQnSEXviXJSw.
Please contact your system administrator.
Add correct host key in /lustre2/home/toliste/.ssh/known_hosts to get rid of this message.
Offending ECDSA key in /lustre2/home/toliste/.ssh/known_hosts:151
Password authentication is disabled to avoid man-in-the-middle attacks.
Keyboard-interactive authentication is disabled to avoid man-in-the-middle attacks.
 (Enter /lustre1/prg/gaussian/bin/G16_C01_Linda9.2_SSE4/g16/linda-exe/l401.exel)
 ExpMin= 9.54D-02 ExpMax= 1.47D+04 ExpMxC= 5.03D+02 IAcc=3 IRadAn=         5 AccDes= 0.00D+00
 Harris functional with IExCor= 1009 and IRadAn=       5 diagonalized for initial guess.
 HarFok:  IExCor= 1009 AccDes= 0.00D+00 IRadAn=         5 IDoV= 1 UseB2=F ITyADJ=14
 ICtDFT=  3500011 ScaDFX=  1.000000  1.000000  1.000000  1.000000
 FoFCou: FMM=F IPFlag=           0 FMFlag=      100000 FMFlg1=           0
         NFxFlg=           0 DoJE=T BraDBF=F KetDBF=T FulRan=T
         wScrn=  0.000000 ICntrl=       500 IOpCl=  0 I1Cent=   200000004 NGrid=           0
         NMat0=    1 NMatS0=      1 NMatT0=    0 NMatD0=    1 NMtDS0=    0 NMtDT0=    0
 Symmetry not used in FoFCou.
 Harris En= -1373.29529033894    
 JPrj=0 DoOrth=F DoCkMO=F.
 Leave Link  401 at Tue Feb  1 12:12:39 2022, MaxMem= 11408506880 cpu:              67.5 elap:               5.9
@@@@@@@@@@@@@@@@@@@@@@@@@@@@@@@@@@@@@@@@@@@@@@@@@@@@@@@@@@@
@    WARNING: REMOTE HOST IDENTIFICATION HAS CHANGED!     @
@@@@@@@@@@@@@@@@@@@@@@@@@@@@@@@@@@@@@@@@@@@@@@@@@@@@@@@@@@@
IT IS POSSIBLE THAT SOMEONE IS DOING SOMETHING NASTY!
Someone could be eavesdropping on you right now (man-in-the-middle attack)!
It is also possible that a host key has just been changed.
The fingerprint for the ECDSA key sent by the remote host is
SHA256:UUwO5PXL1B33HJhaRANVDfAbXPAFCg3n0eIbMQ8SsmA.
Please contact your system administrator.
Add correct host key in /lustre2/home/toliste/.ssh/known_hosts to get rid of this message.
Offending ECDSA key in /lustre2/home/toliste/.ssh/known_hosts:152
Password authentication is disabled to avoid man-in-the-middle attacks.
Keyboard-interactive authentication is disabled to avoid man-in-the-middle attacks.
@@@@@@@@@@@@@@@@@@@@@@@@@@@@@@@@@@@@@@@@@@@@@@@@@@@@@@@@@@@
@    WARNING: REMOTE HOST IDENTIFICATION HAS CHANGED!     @
@@@@@@@@@@@@@@@@@@@@@@@@@@@@@@@@@@@@@@@@@@@@@@@@@@@@@@@@@@@
IT IS POSSIBLE THAT SOMEONE IS DOING SOMETHING NASTY!
Someone could be eavesdropping on you right now (man-in-the-middle attack)!
It is also possible that a host key has just been changed.
The fingerprint for the ECDSA key sent by the remote host is
SHA256:6zgCM3dgCve16Dp/6RkC19T31lBN5cM9JsR2Baj34h8.
Please contact your system administrator.
Add correct host key in /lustre2/home/toliste/.ssh/known_hosts to get rid of this message.
Offending ECDSA key in /lustre2/home/toliste/.ssh/known_hosts:129
Password authentication is disabled to avoid man-in-the-middle attacks.
Keyboard-interactive authentication is disabled to avoid man-in-the-middle attacks.
@@@@@@@@@@@@@@@@@@@@@@@@@@@@@@@@@@@@@@@@@@@@@@@@@@@@@@@@@@@
@    WARNING: REMOTE HOST IDENTIFICATION HAS CHANGED!     @
@@@@@@@@@@@@@@@@@@@@@@@@@@@@@@@@@@@@@@@@@@@@@@@@@@@@@@@@@@@
IT IS POSSIBLE THAT SOMEONE IS DOING SOMETHING NASTY!
Someone could be eavesdropping on you right now (man-in-the-middle attack)!
It is also possible that a host key has just been changed.
The fingerprint for the ECDSA key sent by the remote host is
SHA256:M4yULT9TxhDV5BPO1pZVupvKkKHa8uDjQnSEXviXJSw.
Please contact your system administrator.
Add correct host key in /lustre2/home/toliste/.ssh/known_hosts to get rid of this message.
Offending ECDSA key in /lustre2/home/toliste/.ssh/known_hosts:151
Password authentication is disabled to avoid man-in-the-middle attacks.
Keyboard-interactive authentication is disabled to avoid man-in-the-middle attacks.
@@@@@@@@@@@@@@@@@@@@@@@@@@@@@@@@@@@@@@@@@@@@@@@@@@@@@@@@@@@
@    WARNING: REMOTE HOST IDENTIFICATION HAS CHANGED!     @
@@@@@@@@@@@@@@@@@@@@@@@@@@@@@@@@@@@@@@@@@@@@@@@@@@@@@@@@@@@
IT IS POSSIBLE THAT SOMEONE IS DOING SOMETHING NASTY!
Someone could be eavesdropping on you right now (man-in-the-middle attack)!
It is also possible that a host key has just been changed.
The fingerprint for the ECDSA key sent by the remote host is
SHA256:yPArVvj5wOhEloJrCb/xVGzzpZk0QWZ8LITIW4qfddA.
Please contact your system administrator.
Add correct host key in /lustre2/home/toliste/.ssh/known_hosts to get rid of this message.
Offending ECDSA key in /lustre2/home/toliste/.ssh/known_hosts:127
Password authentication is disabled to avoid man-in-the-middle attacks.
Keyboard-interactive authentication is disabled to avoid man-in-the-middle attacks.
@@@@@@@@@@@@@@@@@@@@@@@@@@@@@@@@@@@@@@@@@@@@@@@@@@@@@@@@@@@
@    WARNING: REMOTE HOST IDENTIFICATION HAS CHANGED!     @
@@@@@@@@@@@@@@@@@@@@@@@@@@@@@@@@@@@@@@@@@@@@@@@@@@@@@@@@@@@
IT IS POSSIBLE THAT SOMEONE IS DOING SOMETHING NASTY!
Someone could be eavesdropping on you right now (man-in-the-middle attack)!
It is also possible that a host key has just been changed.
The fingerprint for the ECDSA key sent by the remote host is
SHA256:iangSMHuBdmzKvH4uwYyc1d4zSR3fTAjBfz7hFypF34.
Please contact your system administrator.
Add correct host key in /lustre2/home/toliste/.ssh/known_hosts to get rid of this message.
Offending ECDSA key in /lustre2/home/toliste/.ssh/known_hosts:153
Password authentication is disabled to avoid man-in-the-middle attacks.
Keyboard-interactive authentication is disabled to avoid man-in-the-middle attacks.
@@@@@@@@@@@@@@@@@@@@@@@@@@@@@@@@@@@@@@@@@@@@@@@@@@@@@@@@@@@
@    WARNING: REMOTE HOST IDENTIFICATION HAS CHANGED!     @
@@@@@@@@@@@@@@@@@@@@@@@@@@@@@@@@@@@@@@@@@@@@@@@@@@@@@@@@@@@
IT IS POSSIBLE THAT SOMEONE IS DOING SOMETHING NASTY!
Someone could be eavesdropping on you right now (man-in-the-middle attack)!
It is also possible that a host key has just been changed.
The fingerprint for the ECDSA key sent by the remote host is
SHA256:1EgGnc29sWYQbFCYakRwgubaxrDAlpRi2ByFyb5Lj7g.
Please contact your system administrator.
Add correct host key in /lustre2/home/toliste/.ssh/known_hosts to get rid of this message.
Offending ECDSA key in /lustre2/home/toliste/.ssh/known_hosts:154
Password authentication is disabled to avoid man-in-the-middle attacks.
Keyboard-interactive authentication is disabled to avoid man-in-the-middle attacks.
@@@@@@@@@@@@@@@@@@@@@@@@@@@@@@@@@@@@@@@@@@@@@@@@@@@@@@@@@@@
@    WARNING: REMOTE HOST IDENTIFICATION HAS CHANGED!     @
@@@@@@@@@@@@@@@@@@@@@@@@@@@@@@@@@@@@@@@@@@@@@@@@@@@@@@@@@@@
IT IS POSSIBLE THAT SOMEONE IS DOING SOMETHING NASTY!
Someone could be eavesdropping on you right now (man-in-the-middle attack)!
It is also possible that a host key has just been changed.
The fingerprint for the ECDSA key sent by the remote host is
SHA256:+yCn7Por1JJyZxZqPT2vdZd4YCKbfu31iTw0V2f26lk.
Please contact your system administrator.
Add correct host key in /lustre2/home/toliste/.ssh/known_hosts to get rid of this message.
Offending ECDSA key in /lustre2/home/toliste/.ssh/known_hosts:150
Password authentication is disabled to avoid man-in-the-middle attacks.
Keyboard-interactive authentication is disabled to avoid man-in-the-middle attacks.
 (Enter /lustre1/prg/gaussian/bin/G16_C01_Linda9.2_SSE4/g16/linda-exe/l502.exel)
 Two-electron integral symmetry not used.
 Closed shell SCF:
 Using DIIS extrapolation, IDIIS=  1040.
 NGot= 11408506880 LenX= 11407832935 LenY= 11407501735
 Requested convergence on RMS density matrix=1.00D-08 within 128 cycles.
 Requested convergence on MAX density matrix=1.00D-06.
 Requested convergence on             energy=1.00D-06.
 No special actions if energy rises.
 Fock matrices will be formed incrementally for  20 cycles.

 Cycle   1  Pass 1  IDiag  1:
 FoFJK:  IHMeth= 1 ICntrl=       0 DoSepK=F KAlg= 0 I1Cent=           0 FoldK=F
 IRaf= 680000000 NMat=       1 IRICut=       1 DoRegI=T DoRafI=F ISym2E= 0 IDoP0=0 IntGTp=1.
 FoFCou: FMM=F IPFlag=           0 FMFlag=      100000 FMFlg1=           0
         NFxFlg=           0 DoJE=F BraDBF=F KetDBF=F FulRan=T
         wScrn=  0.000000 ICntrl=         0 IOpCl=  0 I1Cent=           0 NGrid=           0
         NMat0=    1 NMatS0=      1 NMatT0=    0 NMatD0=    1 NMtDS0=    0 NMtDT0=    0
 Symmetry not used in FoFCou.
 Inv3:  Mode=1 IEnd=    43479747.
 Iteration    1 A*A^-1 deviation from unit magnitude is 8.88D-15 for   3801.
 Iteration    1 A*A^-1 deviation from orthogonality  is 6.07D-15 for   3806   1363.
 Iteration    1 A^-1*A deviation from unit magnitude is 8.88D-15 for   3801.
 Iteration    1 A^-1*A deviation from orthogonality  is 1.99D-15 for   3783   1488.
 E= -1373.64417254372    
 DIIS: error= 3.84D-02 at cycle   1 NSaved=   1.
 NSaved= 1 IEnMin= 1 EnMin= -1373.64417254372     IErMin= 1 ErrMin= 3.84D-02
 ErrMax= 3.84D-02  0.00D+00 EMaxC= 1.00D-01 BMatC= 5.17D-01 BMatP= 5.17D-01
 IDIUse=3 WtCom= 6.16D-01 WtEn= 3.84D-01
 Coeff-Com:  0.100D+01
 Coeff-En:   0.100D+01
 Coeff:      0.100D+01
 Gap=     0.161 Goal=   None    Shift=    0.000
 GapD=    0.161 DampG=1.000 DampE=0.500 DampFc=0.5000 IDamp=-1.
 Damping current iteration by 5.00D-01
 RMSDP=3.12D-03 MaxDP=1.18D-01              OVMax= 1.47D-01

 Cycle   2  Pass 1  IDiag  1:
 RMSU=  1.47D-03    CP:  9.64D-01
 E= -1373.92040129103     Delta-E=       -0.276228747302 Rises=F Damp=T
 DIIS: error= 7.73D-03 at cycle   2 NSaved=   2.
 NSaved= 2 IEnMin= 2 EnMin= -1373.92040129103     IErMin= 2 ErrMin= 7.73D-03
 ErrMax= 7.73D-03  0.00D+00 EMaxC= 1.00D-01 BMatC= 4.38D-02 BMatP= 5.17D-01
 IDIUse=3 WtCom= 9.23D-01 WtEn= 7.73D-02
 Coeff-Com: -0.155D+00 0.115D+01
 Coeff-En:   0.000D+00 0.100D+01
 Coeff:     -0.143D+00 0.114D+01
 Gap=     0.183 Goal=   None    Shift=    0.000
 RMSDP=1.06D-03 MaxDP=6.15D-02 DE=-2.76D-01 OVMax= 8.65D-02

 Cycle   3  Pass 1  IDiag  1:
 RMSU=  7.47D-04    CP:  9.40D-01  1.45D+00
 E= -1374.16099468527     Delta-E=       -0.240593394247 Rises=F Damp=F
 DIIS: error= 5.63D-03 at cycle   3 NSaved=   3.
 NSaved= 3 IEnMin= 3 EnMin= -1374.16099468527     IErMin= 3 ErrMin= 5.63D-03
 ErrMax= 5.63D-03  0.00D+00 EMaxC= 1.00D-01 BMatC= 1.48D-02 BMatP= 4.38D-02
 IDIUse=3 WtCom= 9.44D-01 WtEn= 5.63D-02
 Coeff-Com: -0.113D+00 0.449D+00 0.664D+00
 Coeff-En:   0.000D+00 0.000D+00 0.100D+01
 Coeff:     -0.107D+00 0.424D+00 0.683D+00
 Gap=     0.161 Goal=   None    Shift=    0.000
 RMSDP=3.01D-04 MaxDP=1.70D-02 DE=-2.41D-01 OVMax= 3.74D-02

 Cycle   4  Pass 1  IDiag  1:
 RMSU=  2.31D-04    CP:  9.41D-01  1.47D+00  7.48D-01
 E= -1374.17120517622     Delta-E=       -0.010210490945 Rises=F Damp=F
 DIIS: error= 2.08D-03 at cycle   4 NSaved=   4.
 NSaved= 4 IEnMin= 4 EnMin= -1374.17120517622     IErMin= 4 ErrMin= 2.08D-03
 ErrMax= 2.08D-03  0.00D+00 EMaxC= 1.00D-01 BMatC= 3.77D-03 BMatP= 1.48D-02
 IDIUse=3 WtCom= 9.79D-01 WtEn= 2.08D-02
 Coeff-Com: -0.389D-01 0.106D+00 0.370D+00 0.563D+00
 Coeff-En:   0.000D+00 0.000D+00 0.198D+00 0.802D+00
 Coeff:     -0.381D-01 0.104D+00 0.366D+00 0.568D+00
 Gap=     0.163 Goal=   None    Shift=    0.000
 RMSDP=1.17D-04 MaxDP=7.21D-03 DE=-1.02D-02 OVMax= 1.71D-02

 Cycle   5  Pass 1  IDiag  1:
 RMSU=  5.65D-05    CP:  9.41D-01  1.48D+00  8.25D-01  6.38D-01
 E= -1374.17470980647     Delta-E=       -0.003504630256 Rises=F Damp=F
 DIIS: error= 3.27D-04 at cycle   5 NSaved=   5.
 NSaved= 5 IEnMin= 5 EnMin= -1374.17470980647     IErMin= 5 ErrMin= 3.27D-04
 ErrMax= 3.27D-04  0.00D+00 EMaxC= 1.00D-01 BMatC= 1.67D-04 BMatP= 3.77D-03
 IDIUse=3 WtCom= 9.97D-01 WtEn= 3.27D-03
 Coeff-Com: -0.911D-02 0.152D-01 0.116D+00 0.255D+00 0.623D+00
 Coeff-En:   0.000D+00 0.000D+00 0.000D+00 0.000D+00 0.100D+01
 Coeff:     -0.908D-02 0.151D-01 0.116D+00 0.254D+00 0.624D+00
 Gap=     0.163 Goal=   None    Shift=    0.000
 RMSDP=2.64D-05 MaxDP=1.70D-03 DE=-3.50D-03 OVMax= 3.09D-03

 Cycle   6  Pass 1  IDiag  1:
 RMSU=  1.76D-05    CP:  9.40D-01  1.48D+00  8.28D-01  6.79D-01  7.09D-01
 E= -1374.17486823222     Delta-E=       -0.000158425752 Rises=F Damp=F
 DIIS: error= 1.30D-04 at cycle   6 NSaved=   6.
 NSaved= 6 IEnMin= 6 EnMin= -1374.17486823222     IErMin= 6 ErrMin= 1.30D-04
 ErrMax= 1.30D-04  0.00D+00 EMaxC= 1.00D-01 BMatC= 1.09D-05 BMatP= 1.67D-04
 IDIUse=3 WtCom= 9.99D-01 WtEn= 1.30D-03
 Coeff-Com: -0.173D-02 0.774D-03 0.272D-01 0.729D-01 0.268D+00 0.633D+00
 Coeff-En:   0.000D+00 0.000D+00 0.000D+00 0.000D+00 0.000D+00 0.100D+01
 Coeff:     -0.172D-02 0.773D-03 0.272D-01 0.728D-01 0.268D+00 0.633D+00
 Gap=     0.163 Goal=   None    Shift=    0.000
 RMSDP=7.58D-06 MaxDP=2.60D-04 DE=-1.58D-04 OVMax= 1.41D-03

 Cycle   7  Pass 1  IDiag  1:
 RMSU=  5.92D-06    CP:  9.40D-01  1.48D+00  8.30D-01  6.79D-01  7.72D-01
                    CP:  8.44D-01
 E= -1374.17487986256     Delta-E=       -0.000011630332 Rises=F Damp=F
 DIIS: error= 2.94D-05 at cycle   7 NSaved=   7.
 NSaved= 7 IEnMin= 7 EnMin= -1374.17487986256     IErMin= 7 ErrMin= 2.94D-05
 ErrMax= 2.94D-05  0.00D+00 EMaxC= 1.00D-01 BMatC= 9.34D-07 BMatP= 1.09D-05
 IDIUse=1 WtCom= 1.00D+00 WtEn= 0.00D+00
 Coeff-Com:  0.417D-03-0.155D-02-0.311D-02-0.174D-02 0.267D-01 0.223D+00
 Coeff-Com:  0.756D+00
 Coeff:      0.417D-03-0.155D-02-0.311D-02-0.174D-02 0.267D-01 0.223D+00
 Coeff:      0.756D+00
 Gap=     0.163 Goal=   None    Shift=    0.000
 RMSDP=2.97D-06 MaxDP=1.39D-04 DE=-1.16D-05 OVMax= 5.07D-04

 Cycle   8  Pass 1  IDiag  1:
 RMSU=  2.21D-06    CP:  9.40D-01  1.48D+00  8.30D-01  6.84D-01  7.80D-01
                    CP:  9.36D-01  9.74D-01
 E= -1374.17488100413     Delta-E=       -0.000001141570 Rises=F Damp=F
 DIIS: error= 1.26D-05 at cycle   8 NSaved=   8.
 NSaved= 8 IEnMin= 8 EnMin= -1374.17488100413     IErMin= 8 ErrMin= 1.26D-05
 ErrMax= 1.26D-05  0.00D+00 EMaxC= 1.00D-01 BMatC= 1.88D-07 BMatP= 9.34D-07
 IDIUse=1 WtCom= 1.00D+00 WtEn= 0.00D+00
 Coeff-Com:  0.538D-03-0.930D-03-0.640D-02-0.140D-01-0.360D-01-0.456D-02
 Coeff-Com:  0.355D+00 0.707D+00
 Coeff:      0.538D-03-0.930D-03-0.640D-02-0.140D-01-0.360D-01-0.456D-02
 Coeff:      0.355D+00 0.707D+00
 Gap=     0.163 Goal=   None    Shift=    0.000
 RMSDP=1.24D-06 MaxDP=5.79D-05 DE=-1.14D-06 OVMax= 2.88D-04

 Cycle   9  Pass 1  IDiag  1:
 RMSU=  6.59D-07    CP:  9.40D-01  1.48D+00  8.31D-01  6.84D-01  7.87D-01
                    CP:  9.64D-01  1.08D+00  7.84D-01
 E= -1374.17488125883     Delta-E=       -0.000000254705 Rises=F Damp=F
 DIIS: error= 2.90D-06 at cycle   9 NSaved=   9.
 NSaved= 9 IEnMin= 9 EnMin= -1374.17488125883     IErMin= 9 ErrMin= 2.90D-06
 ErrMax= 2.90D-06  0.00D+00 EMaxC= 1.00D-01 BMatC= 9.82D-09 BMatP= 1.88D-07
 IDIUse=1 WtCom= 1.00D+00 WtEn= 0.00D+00
 Coeff-Com:  0.154D-03-0.218D-03-0.186D-02-0.443D-02-0.135D-01-0.115D-01
 Coeff-Com:  0.694D-01 0.241D+00 0.721D+00
 Coeff:      0.154D-03-0.218D-03-0.186D-02-0.443D-02-0.135D-01-0.115D-01
 Coeff:      0.694D-01 0.241D+00 0.721D+00
 Gap=     0.163 Goal=   None    Shift=    0.000
 RMSDP=3.11D-07 MaxDP=2.38D-05 DE=-2.55D-07 OVMax= 4.66D-05

 Cycle  10  Pass 1  IDiag  1:
 RMSU=  2.28D-07    CP:  9.40D-01  1.48D+00  8.31D-01  6.84D-01  7.87D-01
                    CP:  9.70D-01  1.09D+00  8.50D-01  9.52D-01
 E= -1374.17488127053     Delta-E=       -0.000000011694 Rises=F Damp=F
 DIIS: error= 1.47D-06 at cycle  10 NSaved=  10.
 NSaved=10 IEnMin=10 EnMin= -1374.17488127053     IErMin=10 ErrMin= 1.47D-06
 ErrMax= 1.47D-06  0.00D+00 EMaxC= 1.00D-01 BMatC= 2.26D-09 BMatP= 9.82D-09
 IDIUse=1 WtCom= 1.00D+00 WtEn= 0.00D+00
 Coeff-Com: -0.105D-04 0.381D-04 0.161D-03 0.196D-03-0.633D-03-0.429D-02
 Coeff-Com: -0.274D-01 0.313D-02 0.341D+00 0.688D+00
 Coeff:     -0.105D-04 0.381D-04 0.161D-03 0.196D-03-0.633D-03-0.429D-02
 Coeff:     -0.274D-01 0.313D-02 0.341D+00 0.688D+00
 Gap=     0.163 Goal=   None    Shift=    0.000
 RMSDP=1.20D-07 MaxDP=6.25D-06 DE=-1.17D-08 OVMax= 2.29D-05

 Cycle  11  Pass 1  IDiag  1:
 RMSU=  7.89D-08    CP:  9.40D-01  1.48D+00  8.31D-01  6.84D-01  7.87D-01
                    CP:  9.72D-01  1.10D+00  8.62D-01  1.06D+00  8.78D-01
 E= -1374.17488127329     Delta-E=       -0.000000002761 Rises=F Damp=F
 DIIS: error= 4.41D-07 at cycle  11 NSaved=  11.
 NSaved=11 IEnMin=11 EnMin= -1374.17488127329     IErMin=11 ErrMin= 4.41D-07
 ErrMax= 4.41D-07  0.00D+00 EMaxC= 1.00D-01 BMatC= 1.83D-10 BMatP= 2.26D-09
 IDIUse=1 WtCom= 1.00D+00 WtEn= 0.00D+00
 Coeff-Com: -0.221D-04 0.406D-04 0.283D-03 0.606D-03 0.129D-02-0.304D-03
 Coeff-Com: -0.204D-01-0.270D-01 0.463D-01 0.266D+00 0.733D+00
 Coeff:     -0.221D-04 0.406D-04 0.283D-03 0.606D-03 0.129D-02-0.304D-03
 Coeff:     -0.204D-01-0.270D-01 0.463D-01 0.266D+00 0.733D+00
 Gap=     0.163 Goal=   None    Shift=    0.000
 RMSDP=4.02D-08 MaxDP=1.71D-06 DE=-2.76D-09 OVMax= 6.79D-06

 Cycle  12  Pass 1  IDiag  1:
 RMSU=  2.36D-08    CP:  9.40D-01  1.48D+00  8.31D-01  6.84D-01  7.87D-01
                    CP:  9.73D-01  1.10D+00  8.66D-01  1.08D+00  9.66D-01
                    CP:  9.18D-01
 E= -1374.17488127363     Delta-E=       -0.000000000345 Rises=F Damp=F
 DIIS: error= 1.71D-07 at cycle  12 NSaved=  12.
 NSaved=12 IEnMin=12 EnMin= -1374.17488127363     IErMin=12 ErrMin= 1.71D-07
 ErrMax= 1.71D-07  0.00D+00 EMaxC= 1.00D-01 BMatC= 1.46D-11 BMatP= 1.83D-10
 IDIUse=1 WtCom= 1.00D+00 WtEn= 0.00D+00
 Coeff-Com: -0.631D-05 0.100D-04 0.825D-04 0.188D-03 0.464D-03 0.301D-03
 Coeff-Com: -0.474D-02-0.804D-02-0.108D-01 0.413D-01 0.268D+00 0.713D+00
 Coeff:     -0.631D-05 0.100D-04 0.825D-04 0.188D-03 0.464D-03 0.301D-03
 Coeff:     -0.474D-02-0.804D-02-0.108D-01 0.413D-01 0.268D+00 0.713D+00
 Gap=     0.163 Goal=   None    Shift=    0.000
 RMSDP=9.32D-09 MaxDP=5.79D-07 DE=-3.45D-10 OVMax= 2.00D-06

 Error on total polarization charges =  0.01548
 SCF Done:  E(RM062X) =  -1374.17488127     A.U. after   12 cycles
            NFock= 12  Conv=0.93D-08     -V/T= 2.0062
 KE= 1.365670989257D+03 PE=-8.896196692243D+03 EE= 3.308399297115D+03
 Leave Link  502 at Tue Feb  1 12:15:10 2022, MaxMem= 11408506880 cpu:            1674.4 elap:             148.1
 (Enter /lustre1/prg/gaussian/bin/G16_C01_Linda9.2_SSE4/g16/l801.exe)
 DoSCS=F DFT=T ScalE2(SS,OS)=  1.000000  1.000000
 Range of M.O.s used for correlation:     1   543
 NBasis=   543 NAE=   109 NBE=   109 NFC=     0 NFV=     0
 NROrb=    543 NOA=   109 NOB=   109 NVA=   434 NVB=   434

 **** Warning!!: The largest alpha MO coefficient is  0.13551352D+02

 Leave Link  801 at Tue Feb  1 12:15:11 2022, MaxMem= 11408506880 cpu:               0.6 elap:               0.1
@@@@@@@@@@@@@@@@@@@@@@@@@@@@@@@@@@@@@@@@@@@@@@@@@@@@@@@@@@@
@    WARNING: REMOTE HOST IDENTIFICATION HAS CHANGED!     @
@@@@@@@@@@@@@@@@@@@@@@@@@@@@@@@@@@@@@@@@@@@@@@@@@@@@@@@@@@@
IT IS POSSIBLE THAT SOMEONE IS DOING SOMETHING NASTY!
Someone could be eavesdropping on you right now (man-in-the-middle attack)!
It is also possible that a host key has just been changed.
The fingerprint for the ECDSA key sent by the remote host is
SHA256:+yCn7Por1JJyZxZqPT2vdZd4YCKbfu31iTw0V2f26lk.
Please contact your system administrator.
Add correct host key in /lustre2/home/toliste/.ssh/known_hosts to get rid of this message.
Offending ECDSA key in /lustre2/home/toliste/.ssh/known_hosts:150
Password authentication is disabled to avoid man-in-the-middle attacks.
Keyboard-interactive authentication is disabled to avoid man-in-the-middle attacks.
@@@@@@@@@@@@@@@@@@@@@@@@@@@@@@@@@@@@@@@@@@@@@@@@@@@@@@@@@@@
@    WARNING: REMOTE HOST IDENTIFICATION HAS CHANGED!     @
@@@@@@@@@@@@@@@@@@@@@@@@@@@@@@@@@@@@@@@@@@@@@@@@@@@@@@@@@@@
IT IS POSSIBLE THAT SOMEONE IS DOING SOMETHING NASTY!
Someone could be eavesdropping on you right now (man-in-the-middle attack)!
It is also possible that a host key has just been changed.
The fingerprint for the ECDSA key sent by the remote host is
SHA256:6zgCM3dgCve16Dp/6RkC19T31lBN5cM9JsR2Baj34h8.
Please contact your system administrator.
Add correct host key in /lustre2/home/toliste/.ssh/known_hosts to get rid of this message.
Offending ECDSA key in /lustre2/home/toliste/.ssh/known_hosts:129
Password authentication is disabled to avoid man-in-the-middle attacks.
Keyboard-interactive authentication is disabled to avoid man-in-the-middle attacks.
@@@@@@@@@@@@@@@@@@@@@@@@@@@@@@@@@@@@@@@@@@@@@@@@@@@@@@@@@@@
@    WARNING: REMOTE HOST IDENTIFICATION HAS CHANGED!     @
@@@@@@@@@@@@@@@@@@@@@@@@@@@@@@@@@@@@@@@@@@@@@@@@@@@@@@@@@@@
IT IS POSSIBLE THAT SOMEONE IS DOING SOMETHING NASTY!
Someone could be eavesdropping on you right now (man-in-the-middle attack)!
[...]
 08569266,-0.26019563,-0.09887945,-0.00060541,0.00004669,0.00076171,-0.
 00246934,0.00486624,0.00281371,-0.00048838,0.00172168,0.00068400,0.000
 54648,-0.00102243,-0.00071856,-0.09184471,0.27251351,0.00000357,-0.000
 07092,-0.00002128,-0.00009794,-0.00001762,0.00008748,0.00004049,0.0001
 3141,0.00003229,0.00008413,-0.00002737,-0.00011296,-0.00014215,0.00008
 507,0.00019480,-0.00001462,0.00000065,0.00001075,-0.00000631,-0.000005
 31,-0.00000565,0.00000166,-0.00000567,-0.00000161,-0.00000338,-0.00000
 255,-0.00000191,0.00001675,-0.00001010,-0.00000722,-0.00001406,-0.0000
 0340,-0.00000138,0.00031283,0.00003901,-0.00023839,-0.00018978,-0.0003
 6248,0.00016772,-0.00016473,-0.00014370,0.00011456,-0.00175777,-0.0001
 9121,-0.00150006,0.00037254,0.00059512,-0.00076953,-0.00007075,0.00021
 216,0.00009831,-0.00004327,0.00005840,0.00002549,0.00003815,-0.0001293
 8,-0.00015158,0.00002767,0.00002995,0.00006312,-0.00000071,-0.00000233
 ,0.00000102,-0.00000199,-0.00000041,-0.00000259,-0.00000502,0.00000564
 ,-0.00000037,0.00000048,-0.00000307,-0.00000147,-0.00000074,-0.0000017
 7,0.00000059,-0.00000200,-0.00000298,-0.00000070,0.00000047,0.00000037
 ,0.00000425,-0.00006722,-0.00000314,-0.00000888,0.00068559,0.00009959,
 -0.00126649,0.00001585,-0.00000356,-0.00001662,-0.00000538,0.00000349,
 0.00000604,-0.00001042,-0.00000093,0.00000856,-0.00000200,0.00000269,0
 .00000196,0.00000342,-0.00000106,-0.00000060,-0.00000544,-0.00000277,0
 .00000611,0.00000109,0.00000071,-0.00000208,0.00000140,-0.00000189,-0.
 00000261,-0.00000144,-0.00000109,0.00000144,-0.00000127,0.00000125,0.0
 0000146,-0.00000098,-0.00000010,0.00000054,-0.00356282,0.00917422,0.00
 792777,0.00368552,0.00214128,0.00225734,0.05089178,-0.09805384,-0.0968
 3270,-0.00016059,0.00053936,-0.00060410,0.00758041,-0.02121023,-0.0051
 8891,0.00642734,0.00152080,-0.00002154,-0.00015321,0.00051713,0.000388
 36,-0.06072123,0.10603674,0.09730502,-0.00000256,-0.00005228,-0.000027
 52,-0.00006841,-0.00001346,0.00006524,0.00002801,0.00009210,0.00002525
 ,0.00006097,-0.00001806,-0.00007435,-0.00009438,0.00005639,0.00013988,
 -0.00001136,-0.00000123,0.00000729,-0.00000306,-0.00000178,-0.00000314
 ,-0.00000110,-0.00000404,-0.00000177,-0.00000061,-0.00000401,-0.000002
 16,0.00001215,-0.00000339,-0.00000442,-0.00000243,-0.00000710,0.000001
 09,0.00018643,0.00006487,-0.00016512,-0.00018974,-0.00008133,0.0001613
 7,0.00010883,0.00004699,-0.00008290,0.00003708,0.00084212,0.00016363,-
 0.00031032,-0.00012913,0.00008056,-0.00009014,0.00012289,0.00023282,-0
 .00001032,0.00003753,0.00000486,0.00001304,-0.00010887,-0.00007659,0.0
 0001960,0.00001967,0.00003815,-0.00000098,-0.00000108,-0.00000007,-0.0
 0000127,-0.00000045,-0.00000141,-0.00000292,0.00000446,-0.00000067,0.0
 0000041,-0.00000256,-0.00000049,-0.00000070,-0.00000131,0.00000051,-0.
 00000140,-0.00000184,-0.00000012,0.00000043,0.00000010,0.00000304,-0.0
 0000112,0.00000358,0.00001670,0.00000833,0.00000935,-0.00000358,0.0000
 0938,-0.00000164,-0.00001215,-0.00000355,0.00000245,0.00000376,-0.0000
 0694,-0.00000067,0.00000604,-0.00000129,0.00000192,0.00000141,0.000002
 40,-0.00000073,-0.00000035,-0.00000369,-0.00000195,0.00000415,0.000000
 68,0.00000040,-0.00000137,0.00000086,-0.00000124,-0.00000179,-0.000000
 96,-0.00000073,0.00000099,-0.00000083,0.00000082,0.00000094,-0.0000006
 6,-0.00000006,0.00000032,0.00265772,-0.00111259,0.00620657,-0.00240824
 ,0.01735603,0.00738404,-0.00076456,-0.00053929,-0.00007155,-0.08102397
 ,0.08383676,0.05119701,0.00404647,-0.00199806,0.00392459,0.00687115,-0
 .00886620,-0.00357459,-0.00212803,-0.00014573,-0.00275745,-0.00064800,
 0.00009195,-0.00060427,0.07566772,-0.00000610,0.00005033,0.00003401,0.
 00006097,0.00001003,-0.00006101,-0.00002572,-0.00008227,-0.00002197,-0
 .00005377,0.00001605,0.00006605,0.00008216,-0.00004939,-0.00011934,0.0
 0000948,0.00000057,-0.00000639,0.00000229,0.00000186,0.00000213,0.0000
 0054,0.00000292,0.00000098,0.00000035,0.00000274,0.00000144,-0.0000091
 1,0.00000262,0.00000359,0.00000055,0.00000495,-0.00000090,-0.00015830,
 -0.00005481,0.00013745,0.00014231,0.00006286,-0.00013212,-0.00008094,-
 0.00008083,0.00004844,-0.00009511,0.00021250,0.00018901,-0.00000961,0.
 00003784,0.00003569,0.00007531,-0.00003508,-0.00009558,0.00000571,-0.0
 0002688,-0.00000341,0.00000203,0.00006346,0.00005517,-0.00001410,-0.00
 001203,-0.00002346,0.00000085,0.00000097,0.00000011,0.00000082,0.00000
 035,0.00000145,0.00000172,-0.00000332,0.00000179,-0.00000031,0.0000015
 7,0.00000087,0.00000039,0.00000094,-0.00000015,0.00000112,0.00000140,0
 .00000020,-0.00000037,-0.00000010,-0.00000235,-0.00001596,-0.00001170,
 0.00000349,0.00000281,0.00000139,0.00000667,-0.00000821,0.00000111,0.0
 0001067,0.00000291,-0.00000197,-0.00000311,0.00000602,0.00000049,-0.00
 000532,0.00000109,-0.00000181,-0.00000126,-0.00000218,0.00000066,0.000
 00034,0.00000319,0.00000175,-0.00000363,-0.00000053,-0.00000037,0.0000
 0122,-0.00000069,0.00000108,0.00000160,0.00000082,0.00000065,-0.000000
 80,0.00000072,-0.00000073,-0.00000079,0.00000061,0.00000005,-0.0000002
 8,-0.00087870,0.00168453,0.00090812,-0.00255851,0.00508658,0.00308468,
 -0.00054651,0.00003399,0.00064621,0.08386626,-0.26067434,-0.10253770,-
 0.00244784,-0.00344208,0.00284192,0.01123851,-0.01642812,-0.01365963,0
 .00022383,0.00066403,-0.00021165,0.00009819,-0.00002079,-0.00010526,-0
 .08948029,0.27277932,-0.00001084,0.00008173,0.00004829,0.00010828,0.00
 001616,-0.00010138,-0.00004264,-0.00014122,-0.00003678,-0.00009259,0.0
 0002825,0.00011317,0.00014194,-0.00008500,-0.00020645,0.00001747,0.000
 00104,-0.00001040,0.00000428,0.00000319,0.00000436,0.00000027,0.000005
 72,0.00000181,0.00000090,0.00000418,0.00000211,-0.00001590,0.00000569,
 0.00000645,0.00000209,0.00000780,0.00000123,-0.00027556,-0.00009132,0.
 00023916,0.00028726,0.00016606,-0.00021790,-0.00025562,-0.00010050,0.0
 0011424,0.00011664,-0.00101864,0.00006931,0.00021156,0.00018069,-0.000
 24578,0.00005466,-0.00019075,-0.00023215,0.00000901,-0.00004675,-0.000
 00455,0.00001329,0.00012389,0.00008578,-0.00002794,-0.00002024,-0.0000
 4021,0.00000128,0.00000188,-0.00000023,0.00000172,0.00000048,0.0000024
 4,0.00000322,-0.00000615,0.00000156,-0.00000022,0.00000356,0.00000120,
 0.00000076,0.00000152,-0.00000039,0.00000170,0.00000249,0.00000048,-0.
 00000076,-0.00000010,-0.00000402,-0.00000312,0.00000382,0.00002507,0.0
 0000788,-0.00001819,-0.00001594,-0.00001428,0.00000227,0.00001745,0.00
 000496,-0.00000345,-0.00000535,0.00001012,0.00000080,-0.00000899,0.000
 00186,-0.00000282,-0.00000211,-0.00000368,0.00000099,0.00000060,0.0000
 0531,0.00000295,-0.00000608,-0.00000088,-0.00000056,0.00000205,-0.0000
 0115,0.00000181,0.00000273,0.00000144,0.00000106,-0.00000136,0.0000012
 4,-0.00000118,-0.00000132,0.00000100,0.00000010,-0.00000042,0.00634586
 ,0.00128432,0.00014050,0.00721146,-0.02063025,-0.00491392,-0.00000597,
 0.00073650,-0.00082263,0.05139431,-0.10211543,-0.10185769,0.00375431,0
 .00232976,0.00295565,-0.00337834,0.00986803,0.00815611,-0.00276258,0.0
 0009718,-0.00102180,-0.00060562,-0.00011506,-0.00042656,-0.05962923,0.
 10956910,0.09920746,0.00000565,-0.00005466,-0.00003491,-0.00007135,-0.
 00001145,0.00006957,0.00002818,0.00009593,0.00002557,0.00006322,-0.000
 01743,-0.00007587,-0.00009737,0.00004985,0.00014453,-0.00001127,-0.000
 00072,0.00000749,-0.00000324,-0.00000229,-0.00000257,-0.00000043,-0.00
 000392,-0.00000135,-0.00000085,-0.00000301,-0.00000183,0.00001101,-0.0
 0000408,-0.00000418,-0.00000083,-0.00000256,0.00000150,0.00017748,0.00
 007066,-0.00014572,-0.00022944,-0.00015809,0.00009729,-0.00009813,0.00
 015365,0.00007807,0.00012860,-0.00111511,-0.00002198,-0.00004368,-0.00
 005207,-0.00008553,-0.00005537,0.00011012,0.00016153,-0.00000835,0.000
 04063,0.00000382,0.00000142,-0.00009244,-0.00007171,0.00001795,0.00001
 720,0.00003071,-0.00000094,-0.00000128,0.00000026,-0.00000088,-0.00000
 048,-0.00000165,-0.00000276,0.00000440,-0.00000181,0.00000033,-0.00000
 209,-0.00000101,-0.00000053,-0.00000116,0.00000029,-0.00000139,-0.0000
 0184,-0.00000035,0.00000029,0.00000013,0.00000297,-0.00000052,-0.00001
 028,-0.00000042,0.00001358,0.00001820,-0.00000457,0.00000979,-0.000001
 12,-0.00001242,-0.00000348,0.00000227,0.00000368,-0.00000716,-0.000000
 69,0.00000637,-0.00000129,0.00000200,0.00000143,0.00000251,-0.00000061
 ,-0.00000043,-0.00000374,-0.00000200,0.00000422,0.00000065,0.00000044,
 -0.00000140,0.00000087,-0.00000121,-0.00000184,-0.00000094,-0.00000072
 ,0.00000095,-0.00000088,0.00000084,0.00000099,-0.00000067,-0.00000007,
 0.00000032,0.00231997,0.00051881,0.00649008,-0.00091407,0.00054486,0.0
 0010146,-0.00107493,-0.01816670,0.00570943,0.00399907,0.00212957,0.004
 13732,-0.07046877,-0.07388465,0.03684678,0.00697846,0.01028710,-0.0034
 7344,-0.00062924,-0.00008656,-0.00060951,-0.00201483,0.00011730,-0.002
 77683,0.00020657,0.00053934,-0.00016723,0.06392432,0.00001031,-0.00006
 538,-0.00004595,-0.00008226,-0.00001268,0.00008123,0.00003447,0.000109
 27,0.00002867,0.00007164,-0.00002144,-0.00008772,-0.00010958,0.0000656
 0,0.00015674,-0.00001243,-0.00000061,0.00000831,-0.00000303,-0.0000025
 1,-0.00000270,-0.00000056,-0.00000369,-0.00000118,-0.00000049,-0.00000
 333,-0.00000162,0.00001159,-0.00000340,-0.00000497,-0.00000161,-0.0000
 0729,0.00000095,0.00021188,0.00006966,-0.00018351,-0.00020279,-0.00009
 622,0.00018848,0.00013994,0.00011735,-0.00008599,0.00008172,-0.0001905
 4,-0.00020448,-0.00004890,-0.00003932,0.00002401,-0.00006448,0.0000638
 9,0.00010960,-0.00000629,0.00003330,0.00000290,-0.00000880,-0.00008125
 ,-0.00005775,0.00001870,0.00001480,0.00002760,-0.00000118,-0.00000133,
 -0.00000003,-0.00000106,-0.00000047,-0.00000197,-0.00000209,0.00000405
 ,-0.00000194,0.00000037,-0.00000191,-0.00000114,-0.00000045,-0.0000011
 2,0.00000017,-0.00000140,-0.00000181,-0.00000031,0.00000043,0.00000009
 ,0.00000303,0.00001107,0.00000524,-0.00000025,0.00000167,-0.00000446,-
 0.00001216,0.00001056,-0.00000147,-0.00001362,-0.00000368,0.00000258,0
 .00000394,-0.00000786,-0.00000073,0.00000693,-0.00000146,0.00000236,0.
 00000168,0.00000286,-0.00000082,-0.00000045,-0.00000412,-0.00000230,0.
 00000469,0.00000067,0.00000048,-0.00000157,0.00000090,-0.00000138,-0.0
 0000210,-0.00000106,-0.00000083,0.00000103,-0.00000096,0.00000095,0.00
 000104,-0.00000079,-0.00000008,0.00000035,0.00019797,0.00195356,-0.000
 37128,0.00047592,0.00023306,-0.00056784,0.00157012,0.00210745,-0.00185
 274,0.00250979,-0.00258539,-0.00310230,-0.07430667,-0.29092032,0.08705
 786,-0.00923594,-0.01654851,0.01089485,-0.00007433,-0.00005137,0.00010
 364,-0.00010323,0.00067055,0.00020159,-0.00045483,-0.00098964,0.000519
 31,0.07938990,0.30508234,-0.00000891,0.00006617,0.00004441,0.00008695,
 0.00001401,-0.00008464,-0.00003485,-0.00011627,-0.00003061,-0.00007865
 ,0.00002143,0.00009002,0.00012156,-0.00005947,-0.00017513,0.00001337,0
 .00000075,-0.00000853,0.00000401,0.00000302,0.00000334,0.00000010,0.00
 000473,0.00000139,0.00000099,0.00000318,0.00000200,-0.00001280,0.00000
 517,0.00000485,0.00000120,0.00000445,-0.00000130,-0.00020663,-0.000098
 35,0.00018956,0.00029618,0.00018686,-0.00018737,-0.00003601,-0.0001524
 3,-0.00023843,0.00015343,0.00130777,0.00015745,0.00003934,0.00001291,0
 .00001622,0.00007031,-0.00010176,-0.00015361,0.00000855,-0.00004528,-0
 .00000500,0.00000381,0.00010607,0.00008229,-0.00002378,-0.00001991,-0.
 00003693,0.00000136,0.00000153,-0.00000023,0.00000123,0.00000057,0.000
 00211,0.00000329,-0.00000523,0.00000196,-0.00000033,0.00000252,0.00000
 124,0.00000059,0.00000130,-0.00000028,0.00000154,0.00000210,0.00000054
 ,-0.00000043,-0.00000013,-0.00000337,-0.00001588,0.00000145,0.00000906
 ,0.00001095,-0.00000298,-0.00001348,-0.00001122,0.00000118,0.00001485,
 0.00000402,-0.00000285,-0.00000441,0.00000858,0.00000095,-0.00000766,0
 .00000155,-0.00000243,-0.00000183,-0.00000305,0.00000074,0.00000040,0.
 00000443,0.00000242,-0.00000507,-0.00000071,-0.00000052,0.00000174,-0.
 00000095,0.00000146,0.00000231,0.00000117,0.00000087,-0.00000111,0.000
 00110,-0.00000100,-0.00000115,0.00000084,0.00000008,-0.00000034,0.0063
 6113,-0.00072349,0.00015375,0.00002338,-0.00058061,-0.00086494,0.00585
 836,0.02206517,-0.00329805,0.00430213,-0.00255800,0.00213859,0.0366357
 9,0.08689535,-0.08233984,-0.00363832,-0.01315035,0.00819512,-0.0006130
 5,0.00009555,-0.00040202,-0.00275268,-0.00021031,-0.00111436,-0.000188
 86,-0.00067508,0.00027033,-0.04396085,-0.09287536,0.07882398,-0.000008
 81,-0.00000710,0.00001178,-0.00000820,-0.00000297,0.00000303,0.0000020
 1,0.00001293,0.00000513,0.00000797,-0.00000247,-0.00001119,-0.00001772
 ,0.00001001,0.00002220,0.00000043,-0.00000174,0.00000257,-0.00000176,0
 .,0.00000002,-0.00000057,-0.00000093,-0.00000068,-0.00000096,-0.000001
 34,-0.00000063,0.00000404,-0.00000268,-0.00000105,-0.00000589,0.000002
 42,-0.00000009,0.00003664,0.00000222,-0.00001798,-0.00002554,-0.000005
 13,-0.00003732,-0.00005288,0.00000460,0.00011183,-0.00059553,0.0000416
 0,-0.00056282,0.00006578,-0.00002055,-0.00009773,-0.00011851,0.0000248
 4,0.00012546,-0.00001005,0.00002196,0.00000748,0.00003901,-0.00005929,
 -0.00006823,0.00000582,0.00001284,0.00002787,0.00000023,-0.00000025,0.
 00000014,-0.00000041,-0.00000007,-0.00000040,-0.00000209,0.00000190,-0
 .00000122,0.00000019,-0.00000049,-0.00000013,-0.00000028,-0.00000048,0
 .00000001,-0.00000055,-0.00000069,-0.00000008,0.00000008,0.00000035,0.
 00000071,0.00003563,-0.00001715,0.00003261,0.00003764,-0.00002562,-0.0
 0000909,0.00000333,-0.00000068,-0.00000332,-0.00000128,0.00000036,0.00
 000136,-0.00000167,-0.00000002,0.00000155,-0.00000019,0.00000033,0.000
 00007,0.00000041,-0.00000021,-0.00000012,-0.00000096,-0.00000027,0.000
 00106,0.00000027,0.00000019,-0.00000035,0.00000033,-0.00000034,-0.0000
 0040,-0.00000024,-0.00000021,0.00000027,-0.00000020,0.00000023,0.00000
 026,-0.00000016,0.,0.00000014,-0.00019503,0.00010416,-0.00073304,0.004
 73651,-0.00189573,0.00309525,0.00447286,0.00196654,0.00355932,-0.00156
 220,0.00198163,0.00630222,-0.00242803,-0.00306486,0.00719219,-0.164800
 82,-0.01139160,0.15168425,-0.00019002,0.00011878,0.00030800,-0.0002571
 4,-0.00010496,0.00039718,-0.00215470,0.00002194,-0.00242191,-0.0021425
 8,-0.00001017,-0.00243328,0.16513579,-0.00000346,0.00000467,0.00000660
 ,0.00000587,0.00000024,-0.00000672,-0.00000264,-0.00000741,-0.00000119
 ,-0.00000519,0.00000176,0.00000571,0.00000554,-0.00000381,-0.00001089,
 0.00000123,-0.00000066,-0.00000004,0.00000010,0.00000088,0.00000087,-0
 .00000031,0.00000034,-0.00000004,-0.00000029,-0.00000020,-0.00000011,-
 0.00000028,0.00000013,0.00000074,0.00000086,0.00000115,0.00000001,-0.0
 0001249,-0.00000433,0.00001603,0.00005096,0.00003438,-0.00003803,-0.00
 002135,-0.00002805,-0.00000526,0.00001209,0.00025973,0.00002759,-0.000
 01741,-0.00005520,-0.00002707,-0.00003586,0.00003237,0.00006731,-0.000
 00105,0.00000394,0.00000084,0.00000763,-0.00001033,-0.00001163,0.00000
 057,0.00000276,0.00000505,0.00000006,0.00000016,0.00000004,0.00000006,
 0.,0.00000011,-0.00000027,0.00000047,-0.00000134,0.00000007,0.00000017
 ,0.,-0.00000011,-0.00000004,-0.00000008,-0.00000001,0.00000006,-0.0000
 0003,-0.00000009,0.00000005,-0.00000023,0.00003255,0.00002507,-0.00000
 950,-0.00000582,0.00002287,0.00003478,-0.00000028,0.,0.00000053,0.0000
 0005,-0.00000014,-0.00000008,0.00000036,0.00000002,-0.00000028,0.00000
 010,-0.00000012,-0.00000013,-0.00000018,0.00000003,0.00000003,0.000000
 16,0.00000015,-0.00000018,0.,0.,0.00000006,-0.00000002,0.00000006,0.00
 000010,0.00000004,0.00000003,-0.00000003,0.00000004,-0.00000004,-0.000
 00004,0.00000003,0.00000001,0.,0.00008942,-0.00138364,-0.00008653,-0.0
 0134222,-0.00464307,0.00139387,0.00152828,-0.00398944,-0.00204506,-0.0
 1801154,0.00326311,0.02155902,0.01682158,0.00611445,-0.02019832,-0.011
 38408,-0.05873348,0.01339213,-0.00089977,-0.00002644,0.00110048,0.0008
 6723,0.00010983,-0.00103249,0.00044554,0.00118666,-0.00046471,-0.00041
 391,0.00110502,0.00057207,0.01228823,0.05671582,-0.00001460,0.00005663
 ,0.00004966,0.00007367,0.00000985,-0.00007503,-0.00003209,-0.00009770,
 -0.00002334,-0.00006527,0.00001968,0.00007732,0.00009416,-0.00005421,-
 0.00014093,0.00001271,-0.00000069,-0.00000672,0.00000258,0.00000272,0.
 00000313,-0.00000059,0.00000329,0.00000062,-0.00000009,0.00000188,0.00
 000125,-0.00000847,0.00000199,0.00000374,-0.00000406,0.00000919,-0.000
 00135,-0.00017704,-0.00006599,0.00017762,0.00020018,0.00012931,-0.0001
 7409,-0.00013297,-0.00004313,0.00013132,-0.00057835,0.00017878,-0.0002
 9072,0.00013602,-0.00002723,-0.00013379,-0.00007541,-0.00008857,-0.000
 02264,0.00000100,-0.00001837,0.00000029,0.00002892,0.00003852,0.000015
 52,-0.00001452,-0.00000612,-0.00001081,0.00000107,0.00000129,0.0000001
 7,0.00000075,0.00000036,0.00000171,0.00000107,-0.00000302,0.00000124,-
 0.00000030,0.00000159,0.00000115,0.00000036,0.00000091,-0.00000025,0.0
 0000107,0.00000128,0.00000036,-0.00000040,0.00000015,-0.00000249,-0.00
 000088,-0.00003196,0.00003159,0.00003109,-0.00000663,0.00002218,-0.000
 00829,0.00000102,0.00001133,0.00000286,-0.00000229,-0.00000311,0.00000
 662,0.00000064,-0.00000581,0.00000129,-0.00000207,-0.00000158,-0.00000
 251,0.00000069,0.00000035,0.00000342,0.00000206,-0.00000391,-0.0000005
 2,-0.00000039,0.00000136,-0.00000070,0.00000120,0.00000182,0.00000090,
 0.00000070,-0.00000085,0.00000081,-0.00000080,-0.00000085,0.00000069,0
 .00000007,-0.00000028,-0.00069291,-0.00007081,0.00003078,0.00321463,0.
 00197058,0.00355882,0.00341706,-0.00270228,0.00318816,0.00583489,-0.00
 228232,-0.00347049,0.00768774,0.00373511,-0.00548149,0.15168717,0.0133
 9656,-0.21999409,0.00032171,-0.00007164,-0.00031592,0.00038996,0.00018
 300,-0.00040282,-0.00238430,0.00001880,-0.00128514,-0.00246721,0.00005
 234,-0.00122787,-0.16649291,-0.01424398,0.22576489\\-0.00000050,0.0000
 0018,-0.00000031,-0.00000065,0.00000010,-0.00000041,-0.00000033,-0.000
 00013,-0.00000021,0.00000004,-0.00000023,0.00000002,-0.00000009,-0.000
 00004,-0.00000002,0.00000102,0.00000001,0.00000061,0.00000142,-0.00000
 016,0.00000087,0.00000155,-0.00000063,0.00000091,0.00000123,-0.0000009
 7,0.00000067,0.00000073,-0.00000078,0.00000040,0.00000065,-0.00000027,
 0.00000038,0.00000017,-0.00000005,0.00000012,-0.00000003,0.00000011,0.
 ,0.00000021,0.00000017,0.00000005,-0.00000020,0.00000039,-0.00000007,-
 0.00000056,0.00000046,-0.00000033,-0.00000041,0.00000044,-0.00000027,-
 0.00000119,0.00000022,-0.00000072,-0.00000072,0.00000042,-0.00000038,-
 0.00000086,0.00000096,-0.00000045,-0.00000101,0.00000023,-0.00000060,0
 .00000038,-0.00000037,0.00000020,0.00000093,0.00000045,0.00000061,0.00
 000170,0.00000010,0.00000107,0.00000191,-0.00000079,0.00000111,0.00000
 132,-0.00000134,0.00000068,0.00000051,-0.00000099,0.00000022,0.0000004
 7,-0.00000002,0.00000029,-0.00000092,0.00000060,-0.00000050,-0.0000004
 0,-0.00000023,-0.00000022,0.,-0.00000028,-0.00000001,-0.00000080,-0.00
 000029,-0.00000051,-0.00000003,-0.00000037,-0.00000006,-0.00000083,-0.
 00000039,-0.00000057,-0.00000044,-0.00000044,-0.00000034,0.00000034,-0
 .00000023,0.00000019,-0.00000110,-0.00000026,-0.00000070,0.00000027,-0
 .00000041,0.00000012,-0.00000117,-0.00000043,-0.00000077,-0.00000049,-
 0.00000051,-0.00000035,-0.00000023,0.00000043,-0.00000005,0.00000018,0
 .00000047,0.00000022,-0.00000065,0.00000048,-0.00000028,0.00000023,0.0
 0000052,0.00000018,-0.00000060,0.00000058,-0.00000032,-0.00000015,0.00
 000059,-0.00000010,0.00000053,0.00000046,0.00000036,-0.00000091,0.0000
 0043,-0.00000054,0.00000055,0.00000056,0.00000038,-0.00000090,0.000000
 61,-0.00000052,-0.00000017,0.00000065,-0.00000006\\\@
 The archive entry for this job was punched.


 NO HUMAN INVESTIGATION CAN BECOME REAL SCIENCE
 WITHOUT GOING THROUGH MATHEMATICAL PEOPLE.
 -- LEONARDO DA VINCI, IN "PENSIERI" CA. 1492
 Job cpu time:       0 days  0 hours  0 minutes 41.1 seconds.
 Elapsed time:       0 days  0 hours 35 minutes  8.2 seconds.
 File lengths (MBytes):  RWF=   1809 Int=      0 D2E=      0 Chk=     50 Scr=      1
 Normal termination of Gaussian 16 at Tue Feb  1 13:38:12 2022.
