 Entering Gaussian System, Link 0=g09
 Initial command:
 /scratch/prg/gaussian/bin/g09/l1.exe "/scratch/home/stetol/gaussian/bodipy/v3/7-ppp/ppp-tolu-optS0-v3/Gau-15623.inp" -scrdir="/scratch/home/stetol/gaussian/bodipy/v3/7-ppp/ppp-tolu-optS0-v3/"
 Default is to use a total of  12 processors:
                               12 via shared-memory
                                1 via Linda
 Entering Link 1 = /scratch/prg/gaussian/bin/g09/l1.exe PID=     15624.
  
 Copyright (c) 1988,1990,1992,1993,1995,1998,2003,2009,2013,
            Gaussian, Inc.  All Rights Reserved.
  
 This is part of the Gaussian(R) 09 program.  It is based on
 the Gaussian(R) 03 system (copyright 2003, Gaussian, Inc.),
 the Gaussian(R) 98 system (copyright 1998, Gaussian, Inc.),
 the Gaussian(R) 94 system (copyright 1995, Gaussian, Inc.),
 the Gaussian 92(TM) system (copyright 1992, Gaussian, Inc.),
 the Gaussian 90(TM) system (copyright 1990, Gaussian, Inc.),
 the Gaussian 88(TM) system (copyright 1988, Gaussian, Inc.),
 the Gaussian 86(TM) system (copyright 1986, Carnegie Mellon
 University), and the Gaussian 82(TM) system (copyright 1983,
 Carnegie Mellon University). Gaussian is a federally registered
 trademark of Gaussian, Inc.
  
 This software contains proprietary and confidential information,
 including trade secrets, belonging to Gaussian, Inc.
  
 This software is provided under written license and may be
 used, copied, transmitted, or stored only in accord with that
 written license.
  
 The following legend is applicable only to US Government
 contracts under FAR:
  
                    RESTRICTED RIGHTS LEGEND
  
 Use, reproduction and disclosure by the US Government is
 subject to restrictions as set forth in subparagraphs (a)
 and (c) of the Commercial Computer Software - Restricted
 Rights clause in FAR 52.227-19.
  
 Gaussian, Inc.
 340 Quinnipiac St., Bldg. 40, Wallingford CT 06492
  
  
 ---------------------------------------------------------------
 Warning -- This program may not be used in any manner that
 competes with the business of Gaussian, Inc. or will provide
 assistance to any competitor of Gaussian, Inc.  The licensee
 of this program is prohibited from giving any competitor of
 Gaussian, Inc. access to this program.  By using this program,
 the user acknowledges that Gaussian, Inc. is engaged in the
 business of creating and licensing software in the field of
 computational chemistry and represents and warrants to the
 licensee that it is not a competitor of Gaussian, Inc. and that
 it will not use this program in any manner prohibited above.
 ---------------------------------------------------------------
  

 Cite this work as:
 Gaussian 09, Revision D.01,
 M. J. Frisch, G. W. Trucks, H. B. Schlegel, G. E. Scuseria, 
 M. A. Robb, J. R. Cheeseman, G. Scalmani, V. Barone, B. Mennucci, 
 G. A. Petersson, H. Nakatsuji, M. Caricato, X. Li, H. P. Hratchian, 
 A. F. Izmaylov, J. Bloino, G. Zheng, J. L. Sonnenberg, M. Hada, 
 M. Ehara, K. Toyota, R. Fukuda, J. Hasegawa, M. Ishida, T. Nakajima, 
 Y. Honda, O. Kitao, H. Nakai, T. Vreven, J. A. Montgomery, Jr., 
 J. E. Peralta, F. Ogliaro, M. Bearpark, J. J. Heyd, E. Brothers, 
 K. N. Kudin, V. N. Staroverov, T. Keith, R. Kobayashi, J. Normand, 
 K. Raghavachari, A. Rendell, J. C. Burant, S. S. Iyengar, J. Tomasi, 
 M. Cossi, N. Rega, J. M. Millam, M. Klene, J. E. Knox, J. B. Cross, 
 V. Bakken, C. Adamo, J. Jaramillo, R. Gomperts, R. E. Stratmann, 
 O. Yazyev, A. J. Austin, R. Cammi, C. Pomelli, J. W. Ochterski, 
 R. L. Martin, K. Morokuma, V. G. Zakrzewski, G. A. Voth, 
 P. Salvador, J. J. Dannenberg, S. Dapprich, A. D. Daniels, 
 O. Farkas, J. B. Foresman, J. V. Ortiz, J. Cioslowski, 
 and D. J. Fox, Gaussian, Inc., Wallingford CT, 2013.
 
 ******************************************
 Gaussian 09:  EM64L-G09RevD.01 24-Apr-2013
                22-Apr-2020 
 ******************************************
 %LindaWorkers=fizika67-ib.bullx,fizika68-ib.bullx
 %chk=bodipy.chk
 SetLPE:  input flags=""
 SetLPE:    new flags=" -nodelist 'fizika67-ib.bullx fizika68-ib.bullx'"
 Will use up to    2 processors via Linda.
 Default route:  MaxDisk=50000GB
 ----------------------------------------------------------------------
 #p m062x cc-pvdz scrf=(cpcm,solvent=Toluene) opt=(tight,calcfc) freq n
 osymm int=ultrafine fchk
 ----------------------------------------------------------------------
 1/7=10,10=4,14=-1,18=20,19=15,26=4,38=1/1,3;
 2/9=110,12=2,15=1,17=6,18=5,40=1/2;
 3/5=16,11=2,16=1,25=1,30=1,70=2101,71=2,72=13,74=-55,75=-5,140=1/1,2,3;
 4//1;
 5/5=2,38=5,53=13/2;
 8/6=4,10=90,11=11/1;
 11/6=1,8=1,9=11,15=111,16=1,31=1/1,2,10;
 10/6=1,13=1,31=1/2;
 6/7=2,8=2,9=2,10=2,28=1/1;
 7/10=1,18=20,25=1,30=1/1,2,3,16;
 1/7=10,10=4,14=-1,18=20,19=15,26=4/3(2);
 2/9=110,15=1/2;
 99//99;
 2/9=110,15=1/2;
 3/5=16,11=2,16=1,25=1,30=1,70=2105,71=1,72=13,74=-55,75=-5/1,2,3;
 4/5=5,16=3,69=1/1;
 5/5=2,38=5,53=13/2;
 7/30=1/1,2,3,16;
 1/7=10,14=-1,18=20,19=15,26=4/3(-5);
 2/9=110,15=1/2;
 6/7=2,8=2,9=2,10=2,19=2,28=1/1;
 99/9=1/99;
 Leave Link    1 at Wed Apr 22 09:45:28 2020, MaxMem=           0 cpu:         1.5
 (Enter /scratch/prg/gaussian/bin/g09/l101.exe)
 --------------------------------------
 BODIPY-phenyl with phenyls, initial v3
 --------------------------------------
 Symbolic Z-matrix:
 Charge =  0 Multiplicity = 1
 N                     12.39635  -9.43242  -1.14936 
 C                     13.16717  -9.79639  -2.1737 
 C                     14.05552  -8.74828  -2.52588 
 C                     13.77378  -7.70189  -1.64788 
 C                     12.7404  -8.13746  -0.78384 
 C                     11.50202  -5.11002   0.76646 
 C                     11.86979  -3.81595   1.12618 
 C                     13.20476  -3.5171    1.39975 
 C                     14.17477  -4.51558   1.30722 
 C                     13.8153  -5.8082    0.93429 
 C                     12.47414  -6.11577   0.66269 
 C                     12.08374  -7.48822   0.27449 
 C                     11.06508  -8.1503    0.97947 
 C                     10.34886  -7.77797   2.14249 
 C                     9.52012  -8.8462    2.4843 
 C                     9.76454  -9.85036   1.51278 
 N                     10.67246  -9.43536   0.63004 
 F                     11.59021  -11.51383  -0.19885 
 B                     11.18677  -10.24652  -0.59632 
 F                     10.1951  -10.32518  -1.56849 
 H                     13.06387  -10.78574  -2.61462 
 H                     14.2285  -6.71534  -1.63361 
 H                     10.46114  -5.34411   0.53887 
 H                     11.10955  -3.0371    1.19038 
 H                     13.48969  -2.50436   1.68657 
 H                     15.21761  -4.28868   1.53015 
 H                     14.56908  -6.59467   0.87812 
 H                     10.47455  -6.84354   2.68255 
 H                     9.31565  -10.83693   1.4175 
 C                     15.05513  -8.78458  -3.60514 
 C                     15.54679  -7.596    -4.16431 
 C                     15.5324  -10.00631  -4.10197 
 C                     16.48363  -7.62839  -5.19384 
 C                     16.4745  -10.03778  -5.12714 
 C                     16.95299  -8.84941  -5.67915 
 H                     15.20241  -6.63573  -3.77691 
 H                     15.14969  -10.9441  -3.69591 
 H                     16.85525  -6.69334  -5.61475 
 H                     16.83134  -10.99783  -5.50178 
 H                     17.68878  -8.87453  -6.48348 
 C                     8.58391  -8.94337   3.61527 
 C                     8.07398  -7.78497   4.21947 
 C                     8.18364  -10.1916   4.11428 
 C                     7.19284  -7.87204   5.294 
 C                     7.29715  -10.27784   5.18508 
 C                     6.79915  -9.119     5.78087 
 H                     8.35808  -6.80564   3.83081 
 H                     8.58303  -11.10585   3.67203 
 H                     6.80488  -6.95992   5.74905 
 H                     6.99945  -11.25753   5.56056 
 H                     6.10661  -9.18724   6.62035 
 
 NAtoms=     51 NQM=       51 NQMF=       0 NMMI=      0 NMMIF=      0
                NMic=       0 NMicF=      0.
                    Isotopes and Nuclear Properties:
 (Nuclear quadrupole moments (NQMom) in fm**2, nuclear magnetic moments (NMagM)
  in nuclear magnetons)

  Atom         1           2           3           4           5           6           7           8           9          10
 IAtWgt=          14          12          12          12          12          12          12          12          12          12
 AtmWgt=  14.0030740  12.0000000  12.0000000  12.0000000  12.0000000  12.0000000  12.0000000  12.0000000  12.0000000  12.0000000
 NucSpn=           2           0           0           0           0           0           0           0           0           0
 AtZEff=   0.0000000   0.0000000   0.0000000   0.0000000   0.0000000   0.0000000   0.0000000   0.0000000   0.0000000   0.0000000
 NQMom=    2.0440000   0.0000000   0.0000000   0.0000000   0.0000000   0.0000000   0.0000000   0.0000000   0.0000000   0.0000000
 NMagM=    0.4037610   0.0000000   0.0000000   0.0000000   0.0000000   0.0000000   0.0000000   0.0000000   0.0000000   0.0000000
 AtZNuc=   7.0000000   6.0000000   6.0000000   6.0000000   6.0000000   6.0000000   6.0000000   6.0000000   6.0000000   6.0000000

  Atom        11          12          13          14          15          16          17          18          19          20
 IAtWgt=          12          12          12          12          12          12          14          19          11          19
 AtmWgt=  12.0000000  12.0000000  12.0000000  12.0000000  12.0000000  12.0000000  14.0030740  18.9984033  11.0093053  18.9984033
 NucSpn=           0           0           0           0           0           0           2           1           3           1
 AtZEff=   0.0000000   0.0000000   0.0000000   0.0000000   0.0000000   0.0000000   0.0000000   0.0000000   0.0000000   0.0000000
 NQMom=    0.0000000   0.0000000   0.0000000   0.0000000   0.0000000   0.0000000   2.0440000   0.0000000   4.0590000   0.0000000
 NMagM=    0.0000000   0.0000000   0.0000000   0.0000000   0.0000000   0.0000000   0.4037610   2.6288670   2.6886370   2.6288670
 AtZNuc=   6.0000000   6.0000000   6.0000000   6.0000000   6.0000000   6.0000000   7.0000000   9.0000000   5.0000000   9.0000000

  Atom        21          22          23          24          25          26          27          28          29          30
 IAtWgt=           1           1           1           1           1           1           1           1           1          12
 AtmWgt=   1.0078250   1.0078250   1.0078250   1.0078250   1.0078250   1.0078250   1.0078250   1.0078250   1.0078250  12.0000000
 NucSpn=           1           1           1           1           1           1           1           1           1           0
 AtZEff=   0.0000000   0.0000000   0.0000000   0.0000000   0.0000000   0.0000000   0.0000000   0.0000000   0.0000000   0.0000000
 NQMom=    0.0000000   0.0000000   0.0000000   0.0000000   0.0000000   0.0000000   0.0000000   0.0000000   0.0000000   0.0000000
 NMagM=    2.7928460   2.7928460   2.7928460   2.7928460   2.7928460   2.7928460   2.7928460   2.7928460   2.7928460   0.0000000
 AtZNuc=   1.0000000   1.0000000   1.0000000   1.0000000   1.0000000   1.0000000   1.0000000   1.0000000   1.0000000   6.0000000

  Atom        31          32          33          34          35          36          37          38          39          40
 IAtWgt=          12          12          12          12          12           1           1           1           1           1
 AtmWgt=  12.0000000  12.0000000  12.0000000  12.0000000  12.0000000   1.0078250   1.0078250   1.0078250   1.0078250   1.0078250
 NucSpn=           0           0           0           0           0           1           1           1           1           1
 AtZEff=   0.0000000   0.0000000   0.0000000   0.0000000   0.0000000   0.0000000   0.0000000   0.0000000   0.0000000   0.0000000
 NQMom=    0.0000000   0.0000000   0.0000000   0.0000000   0.0000000   0.0000000   0.0000000   0.0000000   0.0000000   0.0000000
 NMagM=    0.0000000   0.0000000   0.0000000   0.0000000   0.0000000   2.7928460   2.7928460   2.7928460   2.7928460   2.7928460
 AtZNuc=   6.0000000   6.0000000   6.0000000   6.0000000   6.0000000   1.0000000   1.0000000   1.0000000   1.0000000   1.0000000

  Atom        41          42          43          44          45          46          47          48          49          50
 IAtWgt=          12          12          12          12          12          12           1           1           1           1
 AtmWgt=  12.0000000  12.0000000  12.0000000  12.0000000  12.0000000  12.0000000   1.0078250   1.0078250   1.0078250   1.0078250
 NucSpn=           0           0           0           0           0           0           1           1           1           1
 AtZEff=   0.0000000   0.0000000   0.0000000   0.0000000   0.0000000   0.0000000   0.0000000   0.0000000   0.0000000   0.0000000
 NQMom=    0.0000000   0.0000000   0.0000000   0.0000000   0.0000000   0.0000000   0.0000000   0.0000000   0.0000000   0.0000000
 NMagM=    0.0000000   0.0000000   0.0000000   0.0000000   0.0000000   0.0000000   2.7928460   2.7928460   2.7928460   2.7928460
 AtZNuc=   6.0000000   6.0000000   6.0000000   6.0000000   6.0000000   6.0000000   1.0000000   1.0000000   1.0000000   1.0000000

  Atom        51
 IAtWgt=           1
 AtmWgt=   1.0078250
 NucSpn=           1
 AtZEff=   0.0000000
 NQMom=    0.0000000
 NMagM=    2.7928460
 AtZNuc=   1.0000000
 Leave Link  101 at Wed Apr 22 09:45:29 2020, MaxMem= 12079595520 cpu:         6.4
 (Enter /scratch/prg/gaussian/bin/g09/l103.exe)

 GradGradGradGradGradGradGradGradGradGradGradGradGradGradGradGradGradGrad
 Berny optimization.
 Initialization pass.
                           ----------------------------
                           !    Initial Parameters    !
                           ! (Angstroms and Degrees)  !
 --------------------------                            --------------------------
 ! Name  Definition              Value          Derivative Info.                !
 --------------------------------------------------------------------------------
 ! R1    R(1,2)                  1.3326         calculate D2E/DX2 analytically  !
 ! R2    R(1,5)                  1.3888         calculate D2E/DX2 analytically  !
 ! R3    R(1,19)                 1.5594         calculate D2E/DX2 analytically  !
 ! R4    R(2,3)                  1.4184         calculate D2E/DX2 analytically  !
 ! R5    R(2,21)                 1.0881         calculate D2E/DX2 analytically  !
 ! R6    R(3,4)                  1.3947         calculate D2E/DX2 analytically  !
 ! R7    R(3,30)                 1.4715         calculate D2E/DX2 analytically  !
 ! R8    R(4,5)                  1.4157         calculate D2E/DX2 analytically  !
 ! R9    R(4,22)                 1.0864         calculate D2E/DX2 analytically  !
 ! R10   R(5,12)                 1.4046         calculate D2E/DX2 analytically  !
 ! R11   R(6,7)                  1.3926         calculate D2E/DX2 analytically  !
 ! R12   R(6,11)                 1.4026         calculate D2E/DX2 analytically  !
 ! R13   R(6,23)                 1.0909         calculate D2E/DX2 analytically  !
 ! R14   R(7,8)                  1.3951         calculate D2E/DX2 analytically  !
 ! R15   R(7,24)                 1.0903         calculate D2E/DX2 analytically  !
 ! R16   R(8,9)                  1.3952         calculate D2E/DX2 analytically  !
 ! R17   R(8,25)                 1.0905         calculate D2E/DX2 analytically  !
 ! R18   R(9,10)                 1.3925         calculate D2E/DX2 analytically  !
 ! R19   R(9,26)                 1.0903         calculate D2E/DX2 analytically  !
 ! R20   R(10,11)                1.4025         calculate D2E/DX2 analytically  !
 ! R21   R(10,27)                1.0908         calculate D2E/DX2 analytically  !
 ! R22   R(11,12)                1.4788         calculate D2E/DX2 analytically  !
 ! R23   R(12,13)                1.4046         calculate D2E/DX2 analytically  !
 ! R24   R(13,14)                1.4157         calculate D2E/DX2 analytically  !
 ! R25   R(13,17)                1.3884         calculate D2E/DX2 analytically  !
 ! R26   R(14,15)                1.3946         calculate D2E/DX2 analytically  !
 ! R27   R(14,28)                1.0866         calculate D2E/DX2 analytically  !
 ! R28   R(15,16)                1.4184         calculate D2E/DX2 analytically  !
 ! R29   R(15,41)                1.4714         calculate D2E/DX2 analytically  !
 ! R30   R(16,17)                1.3326         calculate D2E/DX2 analytically  !
 ! R31   R(16,29)                1.0881         calculate D2E/DX2 analytically  !
 ! R32   R(17,19)                1.5577         calculate D2E/DX2 analytically  !
 ! R33   R(18,19)                1.3881         calculate D2E/DX2 analytically  !
 ! R34   R(19,20)                1.3909         calculate D2E/DX2 analytically  !
 ! R35   R(30,31)                1.4025         calculate D2E/DX2 analytically  !
 ! R36   R(30,32)                1.4026         calculate D2E/DX2 analytically  !
 ! R37   R(31,33)                1.3924         calculate D2E/DX2 analytically  !
 ! R38   R(31,36)                1.0912         calculate D2E/DX2 analytically  !
 ! R39   R(32,34)                1.3927         calculate D2E/DX2 analytically  !
 ! R40   R(32,37)                1.0912         calculate D2E/DX2 analytically  !
 ! R41   R(33,35)                1.3952         calculate D2E/DX2 analytically  !
 ! R42   R(33,38)                1.0907         calculate D2E/DX2 analytically  !
 ! R43   R(34,35)                1.395          calculate D2E/DX2 analytically  !
 ! R44   R(34,39)                1.0906         calculate D2E/DX2 analytically  !
 ! R45   R(35,40)                1.0904         calculate D2E/DX2 analytically  !
 ! R46   R(41,42)                1.4025         calculate D2E/DX2 analytically  !
 ! R47   R(41,43)                1.4026         calculate D2E/DX2 analytically  !
 ! R48   R(42,44)                1.3923         calculate D2E/DX2 analytically  !
 ! R49   R(42,47)                1.0913         calculate D2E/DX2 analytically  !
 ! R50   R(43,45)                1.3928         calculate D2E/DX2 analytically  !
 ! R51   R(43,48)                1.0913         calculate D2E/DX2 analytically  !
 ! R52   R(44,46)                1.3953         calculate D2E/DX2 analytically  !
 ! R53   R(44,49)                1.0907         calculate D2E/DX2 analytically  !
 ! R54   R(45,46)                1.3949         calculate D2E/DX2 analytically  !
 ! R55   R(45,50)                1.0906         calculate D2E/DX2 analytically  !
 ! R56   R(46,51)                1.0904         calculate D2E/DX2 analytically  !
 ! A1    A(2,1,5)              108.2805         calculate D2E/DX2 analytically  !
 ! A2    A(2,1,19)             125.3582         calculate D2E/DX2 analytically  !
 ! A3    A(5,1,19)             125.8442         calculate D2E/DX2 analytically  !
 ! A4    A(1,2,3)              110.5672         calculate D2E/DX2 analytically  !
 ! A5    A(1,2,21)             120.3254         calculate D2E/DX2 analytically  !
 ! A6    A(3,2,21)             129.1065         calculate D2E/DX2 analytically  !
 ! A7    A(2,3,4)              105.7585         calculate D2E/DX2 analytically  !
 ! A8    A(2,3,30)             126.1105         calculate D2E/DX2 analytically  !
 ! A9    A(4,3,30)             128.1306         calculate D2E/DX2 analytically  !
 ! A10   A(3,4,5)              107.508          calculate D2E/DX2 analytically  !
 ! A11   A(3,4,22)             127.2305         calculate D2E/DX2 analytically  !
 ! A12   A(5,4,22)             125.2336         calculate D2E/DX2 analytically  !
 ! A13   A(1,5,4)              107.883          calculate D2E/DX2 analytically  !
 ! A14   A(1,5,12)             120.896          calculate D2E/DX2 analytically  !
 ! A15   A(4,5,12)             131.2186         calculate D2E/DX2 analytically  !
 ! A16   A(7,6,11)             120.1592         calculate D2E/DX2 analytically  !
 ! A17   A(7,6,23)             120.3508         calculate D2E/DX2 analytically  !
 ! A18   A(11,6,23)            119.4721         calculate D2E/DX2 analytically  !
 ! A19   A(6,7,8)              120.1606         calculate D2E/DX2 analytically  !
 ! A20   A(6,7,24)             119.6624         calculate D2E/DX2 analytically  !
 ! A21   A(8,7,24)             120.1768         calculate D2E/DX2 analytically  !
 ! A22   A(7,8,9)              119.9338         calculate D2E/DX2 analytically  !
 ! A23   A(7,8,25)             120.0368         calculate D2E/DX2 analytically  !
 ! A24   A(9,8,25)             120.0294         calculate D2E/DX2 analytically  !
 ! A25   A(8,9,10)             120.1726         calculate D2E/DX2 analytically  !
 ! A26   A(8,9,26)             120.1673         calculate D2E/DX2 analytically  !
 ! A27   A(10,9,26)            119.6597         calculate D2E/DX2 analytically  !
 ! A28   A(9,10,11)            120.15           calculate D2E/DX2 analytically  !
 ! A29   A(9,10,27)            120.3093         calculate D2E/DX2 analytically  !
 ! A30   A(11,10,27)           119.519          calculate D2E/DX2 analytically  !
 ! A31   A(6,11,10)            119.4184         calculate D2E/DX2 analytically  !
 ! A32   A(6,11,12)            120.1292         calculate D2E/DX2 analytically  !
 ! A33   A(10,11,12)           120.4521         calculate D2E/DX2 analytically  !
 ! A34   A(5,12,11)            120.224          calculate D2E/DX2 analytically  !
 ! A35   A(5,12,13)            119.9569         calculate D2E/DX2 analytically  !
 ! A36   A(11,12,13)           119.8133         calculate D2E/DX2 analytically  !
 ! A37   A(12,13,14)           130.9372         calculate D2E/DX2 analytically  !
 ! A38   A(12,13,17)           120.9999         calculate D2E/DX2 analytically  !
 ! A39   A(14,13,17)           107.8862         calculate D2E/DX2 analytically  !
 ! A40   A(13,14,15)           107.4899         calculate D2E/DX2 analytically  !
 ! A41   A(13,14,28)           125.1681         calculate D2E/DX2 analytically  !
 ! A42   A(15,14,28)           127.2776         calculate D2E/DX2 analytically  !
 ! A43   A(14,15,16)           105.7836         calculate D2E/DX2 analytically  !
 ! A44   A(14,15,41)           128.1044         calculate D2E/DX2 analytically  !
 ! A45   A(16,15,41)           126.1109         calculate D2E/DX2 analytically  !
 ! A46   A(15,16,17)           110.5271         calculate D2E/DX2 analytically  !
 ! A47   A(15,16,29)           129.1081         calculate D2E/DX2 analytically  !
 ! A48   A(17,16,29)           120.3613         calculate D2E/DX2 analytically  !
 ! A49   A(13,17,16)           108.3122         calculate D2E/DX2 analytically  !
 ! A50   A(13,17,19)           125.9278         calculate D2E/DX2 analytically  !
 ! A51   A(16,17,19)           125.7534         calculate D2E/DX2 analytically  !
 ! A52   A(1,19,17)            105.2752         calculate D2E/DX2 analytically  !
 ! A53   A(1,19,18)            110.655          calculate D2E/DX2 analytically  !
 ! A54   A(1,19,20)            109.5519         calculate D2E/DX2 analytically  !
 ! A55   A(17,19,18)           110.2404         calculate D2E/DX2 analytically  !
 ! A56   A(17,19,20)           110.1402         calculate D2E/DX2 analytically  !
 ! A57   A(18,19,20)           110.8371         calculate D2E/DX2 analytically  !
 ! A58   A(3,30,31)            120.639          calculate D2E/DX2 analytically  !
 ! A59   A(3,30,32)            120.8269         calculate D2E/DX2 analytically  !
 ! A60   A(31,30,32)           118.5333         calculate D2E/DX2 analytically  !
 ! A61   A(30,31,33)           120.7269         calculate D2E/DX2 analytically  !
 ! A62   A(30,31,36)           119.5764         calculate D2E/DX2 analytically  !
 ! A63   A(33,31,36)           119.6897         calculate D2E/DX2 analytically  !
 ! A64   A(30,32,34)           120.7053         calculate D2E/DX2 analytically  !
 ! A65   A(30,32,37)           119.8295         calculate D2E/DX2 analytically  !
 ! A66   A(34,32,37)           119.4552         calculate D2E/DX2 analytically  !
 ! A67   A(31,33,35)           120.2576         calculate D2E/DX2 analytically  !
 ! A68   A(31,33,38)           119.6482         calculate D2E/DX2 analytically  !
 ! A69   A(35,33,38)           120.0925         calculate D2E/DX2 analytically  !
 ! A70   A(32,34,35)           120.2708         calculate D2E/DX2 analytically  !
 ! A71   A(32,34,39)           119.6106         calculate D2E/DX2 analytically  !
 ! A72   A(35,34,39)           120.117          calculate D2E/DX2 analytically  !
 ! A73   A(33,35,34)           119.5047         calculate D2E/DX2 analytically  !
 ! A74   A(33,35,40)           120.2473         calculate D2E/DX2 analytically  !
 ! A75   A(34,35,40)           120.248          calculate D2E/DX2 analytically  !
 ! A76   A(15,41,42)           120.5258         calculate D2E/DX2 analytically  !
 ! A77   A(15,41,43)           120.9177         calculate D2E/DX2 analytically  !
 ! A78   A(42,41,43)           118.5565         calculate D2E/DX2 analytically  !
 ! A79   A(41,42,44)           120.725          calculate D2E/DX2 analytically  !
 ! A80   A(41,42,47)           119.5477         calculate D2E/DX2 analytically  !
 ! A81   A(44,42,47)           119.7184         calculate D2E/DX2 analytically  !
 ! A82   A(41,43,45)           120.6813         calculate D2E/DX2 analytically  !
 ! A83   A(41,43,48)           119.7975         calculate D2E/DX2 analytically  !
 ! A84   A(45,43,48)           119.5125         calculate D2E/DX2 analytically  !
 ! A85   A(42,44,46)           120.2466         calculate D2E/DX2 analytically  !
 ! A86   A(42,44,49)           119.6571         calculate D2E/DX2 analytically  !
 ! A87   A(46,44,49)           120.0945         calculate D2E/DX2 analytically  !
 ! A88   A(43,45,46)           120.2745         calculate D2E/DX2 analytically  !
 ! A89   A(43,45,50)           119.6074         calculate D2E/DX2 analytically  !
 ! A90   A(46,45,50)           120.1167         calculate D2E/DX2 analytically  !
 ! A91   A(44,46,45)           119.515          calculate D2E/DX2 analytically  !
 ! A92   A(44,46,51)           120.2486         calculate D2E/DX2 analytically  !
 ! A93   A(45,46,51)           120.2365         calculate D2E/DX2 analytically  !
 ! D1    D(5,1,2,3)             -0.0031         calculate D2E/DX2 analytically  !
 ! D2    D(5,1,2,21)           179.6942         calculate D2E/DX2 analytically  !
 ! D3    D(19,1,2,3)           172.1276         calculate D2E/DX2 analytically  !
 ! D4    D(19,1,2,21)           -8.1751         calculate D2E/DX2 analytically  !
 ! D5    D(2,1,5,4)              0.329          calculate D2E/DX2 analytically  !
 ! D6    D(2,1,5,12)           179.8248         calculate D2E/DX2 analytically  !
 ! D7    D(19,1,5,4)          -171.7535         calculate D2E/DX2 analytically  !
 ! D8    D(19,1,5,12)            7.7424         calculate D2E/DX2 analytically  !
 ! D9    D(2,1,19,17)          177.3487         calculate D2E/DX2 analytically  !
 ! D10   D(2,1,19,18)           58.2564         calculate D2E/DX2 analytically  !
 ! D11   D(2,1,19,20)          -64.2426         calculate D2E/DX2 analytically  !
 ! D12   D(5,1,19,17)          -11.8802         calculate D2E/DX2 analytically  !
 ! D13   D(5,1,19,18)         -130.9724         calculate D2E/DX2 analytically  !
 ! D14   D(5,1,19,20)          106.5285         calculate D2E/DX2 analytically  !
 ! D15   D(1,2,3,4)             -0.3252         calculate D2E/DX2 analytically  !
 ! D16   D(1,2,3,30)           179.9014         calculate D2E/DX2 analytically  !
 ! D17   D(21,2,3,4)          -179.9885         calculate D2E/DX2 analytically  !
 ! D18   D(21,2,3,30)            0.2381         calculate D2E/DX2 analytically  !
 ! D19   D(2,3,4,5)              0.5134         calculate D2E/DX2 analytically  !
 ! D20   D(2,3,4,22)          -177.6301         calculate D2E/DX2 analytically  !
 ! D21   D(30,3,4,5)          -179.7193         calculate D2E/DX2 analytically  !
 ! D22   D(30,3,4,22)            2.1371         calculate D2E/DX2 analytically  !
 ! D23   D(2,3,30,31)          157.9897         calculate D2E/DX2 analytically  !
 ! D24   D(2,3,30,32)          -21.6932         calculate D2E/DX2 analytically  !
 ! D25   D(4,3,30,31)          -21.733          calculate D2E/DX2 analytically  !
 ! D26   D(4,3,30,32)          158.584          calculate D2E/DX2 analytically  !
 ! D27   D(3,4,5,1)             -0.5299         calculate D2E/DX2 analytically  !
 ! D28   D(3,4,5,12)          -179.9548         calculate D2E/DX2 analytically  !
 ! D29   D(22,4,5,1)           177.6605         calculate D2E/DX2 analytically  !
 ! D30   D(22,4,5,12)           -1.7644         calculate D2E/DX2 analytically  !
 ! D31   D(1,5,12,11)          179.1946         calculate D2E/DX2 analytically  !
 ! D32   D(1,5,12,13)            0.073          calculate D2E/DX2 analytically  !
 ! D33   D(4,5,12,11)           -1.4432         calculate D2E/DX2 analytically  !
 ! D34   D(4,5,12,13)          179.4352         calculate D2E/DX2 analytically  !
 ! D35   D(11,6,7,8)            -0.7237         calculate D2E/DX2 analytically  !
 ! D36   D(11,6,7,24)          179.1182         calculate D2E/DX2 analytically  !
 ! D37   D(23,6,7,8)          -179.1773         calculate D2E/DX2 analytically  !
 ! D38   D(23,6,7,24)            0.6646         calculate D2E/DX2 analytically  !
 ! D39   D(7,6,11,10)            0.4924         calculate D2E/DX2 analytically  !
 ! D40   D(7,6,11,12)         -179.7132         calculate D2E/DX2 analytically  !
 ! D41   D(23,6,11,10)         178.9595         calculate D2E/DX2 analytically  !
 ! D42   D(23,6,11,12)          -1.246          calculate D2E/DX2 analytically  !
 ! D43   D(6,7,8,9)              0.2757         calculate D2E/DX2 analytically  !
 ! D44   D(6,7,8,25)          -179.664          calculate D2E/DX2 analytically  !
 ! D45   D(24,7,8,9)          -179.5654         calculate D2E/DX2 analytically  !
 ! D46   D(24,7,8,25)            0.4949         calculate D2E/DX2 analytically  !
 ! D47   D(7,8,9,10)             0.403          calculate D2E/DX2 analytically  !
 ! D48   D(7,8,9,26)          -179.3686         calculate D2E/DX2 analytically  !
 ! D49   D(25,8,9,10)         -179.6572         calculate D2E/DX2 analytically  !
 ! D50   D(25,8,9,26)            0.5712         calculate D2E/DX2 analytically  !
 ! D51   D(8,9,10,11)           -0.6321         calculate D2E/DX2 analytically  !
 ! D52   D(8,9,10,27)         -178.9292         calculate D2E/DX2 analytically  !
 ! D53   D(26,9,10,11)         179.1407         calculate D2E/DX2 analytically  !
 ! D54   D(26,9,10,27)           0.8436         calculate D2E/DX2 analytically  !
 ! D55   D(9,10,11,6)            0.1845         calculate D2E/DX2 analytically  !
 ! D56   D(9,10,11,12)        -179.6093         calculate D2E/DX2 analytically  !
 ! D57   D(27,10,11,6)         178.495          calculate D2E/DX2 analytically  !
 ! D58   D(27,10,11,12)         -1.2987         calculate D2E/DX2 analytically  !
 ! D59   D(6,11,12,5)          127.8496         calculate D2E/DX2 analytically  !
 ! D60   D(6,11,12,13)         -53.0275         calculate D2E/DX2 analytically  !
 ! D61   D(10,11,12,5)         -52.3581         calculate D2E/DX2 analytically  !
 ! D62   D(10,11,12,13)        126.7647         calculate D2E/DX2 analytically  !
 ! D63   D(5,12,13,14)         173.2111         calculate D2E/DX2 analytically  !
 ! D64   D(5,12,13,17)          -1.3331         calculate D2E/DX2 analytically  !
 ! D65   D(11,12,13,14)         -5.9141         calculate D2E/DX2 analytically  !
 ! D66   D(11,12,13,17)        179.5417         calculate D2E/DX2 analytically  !
 ! D67   D(12,13,14,15)       -175.3428         calculate D2E/DX2 analytically  !
 ! D68   D(12,13,14,28)          1.9127         calculate D2E/DX2 analytically  !
 ! D69   D(17,13,14,15)         -0.2555         calculate D2E/DX2 analytically  !
 ! D70   D(17,13,14,28)        177.0            calculate D2E/DX2 analytically  !
 ! D71   D(12,13,17,16)        175.7671         calculate D2E/DX2 analytically  !
 ! D72   D(12,13,17,19)         -5.1259         calculate D2E/DX2 analytically  !
 ! D73   D(14,13,17,16)          0.0955         calculate D2E/DX2 analytically  !
 ! D74   D(14,13,17,19)        179.2025         calculate D2E/DX2 analytically  !
 ! D75   D(13,14,15,16)          0.3062         calculate D2E/DX2 analytically  !
 ! D76   D(13,14,15,41)        179.9507         calculate D2E/DX2 analytically  !
 ! D77   D(28,14,15,16)       -176.8742         calculate D2E/DX2 analytically  !
 ! D78   D(28,14,15,41)          2.7703         calculate D2E/DX2 analytically  !
 ! D79   D(14,15,16,17)         -0.258          calculate D2E/DX2 analytically  !
 ! D80   D(14,15,16,29)       -179.565          calculate D2E/DX2 analytically  !
 ! D81   D(41,15,16,17)       -179.9118         calculate D2E/DX2 analytically  !
 ! D82   D(41,15,16,29)          0.7812         calculate D2E/DX2 analytically  !
 ! D83   D(14,15,41,42)         22.8856         calculate D2E/DX2 analytically  !
 ! D84   D(14,15,41,43)       -157.0019         calculate D2E/DX2 analytically  !
 ! D85   D(16,15,41,42)       -157.5378         calculate D2E/DX2 analytically  !
 ! D86   D(16,15,41,43)         22.5747         calculate D2E/DX2 analytically  !
 ! D87   D(15,16,17,13)          0.101          calculate D2E/DX2 analytically  !
 ! D88   D(15,16,17,19)       -179.0079         calculate D2E/DX2 analytically  !
 ! D89   D(29,16,17,13)        179.4778         calculate D2E/DX2 analytically  !
 ! D90   D(29,16,17,19)          0.3688         calculate D2E/DX2 analytically  !
 ! D91   D(13,17,19,1)          10.5744         calculate D2E/DX2 analytically  !
 ! D92   D(13,17,19,18)        129.9428         calculate D2E/DX2 analytically  !
 ! D93   D(13,17,19,20)       -107.4385         calculate D2E/DX2 analytically  !
 ! D94   D(16,17,19,1)        -170.4703         calculate D2E/DX2 analytically  !
 ! D95   D(16,17,19,18)        -51.1018         calculate D2E/DX2 analytically  !
 ! D96   D(16,17,19,20)         71.5168         calculate D2E/DX2 analytically  !
 ! D97   D(3,30,31,33)        -179.4149         calculate D2E/DX2 analytically  !
 ! D98   D(3,30,31,36)           1.5515         calculate D2E/DX2 analytically  !
 ! D99   D(32,30,31,33)          0.2752         calculate D2E/DX2 analytically  !
 ! D100  D(32,30,31,36)       -178.7584         calculate D2E/DX2 analytically  !
 ! D101  D(3,30,32,34)         179.741          calculate D2E/DX2 analytically  !
 ! D102  D(3,30,32,37)           0.8939         calculate D2E/DX2 analytically  !
 ! D103  D(31,30,32,34)          0.0515         calculate D2E/DX2 analytically  !
 ! D104  D(31,30,32,37)       -178.7956         calculate D2E/DX2 analytically  !
 ! D105  D(30,31,33,35)         -0.372          calculate D2E/DX2 analytically  !
 ! D106  D(30,31,33,38)       -179.9061         calculate D2E/DX2 analytically  !
 ! D107  D(36,31,33,35)        178.6605         calculate D2E/DX2 analytically  !
 ! D108  D(36,31,33,38)         -0.8736         calculate D2E/DX2 analytically  !
 ! D109  D(30,32,34,35)         -0.2833         calculate D2E/DX2 analytically  !
 ! D110  D(30,32,34,39)       -179.8348         calculate D2E/DX2 analytically  !
 ! D111  D(37,32,34,35)        178.5681         calculate D2E/DX2 analytically  !
 ! D112  D(37,32,34,39)         -0.9834         calculate D2E/DX2 analytically  !
 ! D113  D(31,33,35,34)          0.1372         calculate D2E/DX2 analytically  !
 ! D114  D(31,33,35,40)       -179.8257         calculate D2E/DX2 analytically  !
 ! D115  D(38,33,35,34)        179.6692         calculate D2E/DX2 analytically  !
 ! D116  D(38,33,35,40)         -0.2937         calculate D2E/DX2 analytically  !
 ! D117  D(32,34,35,33)          0.1881         calculate D2E/DX2 analytically  !
 ! D118  D(32,34,35,40)       -179.849          calculate D2E/DX2 analytically  !
 ! D119  D(39,34,35,33)        179.7373         calculate D2E/DX2 analytically  !
 ! D120  D(39,34,35,40)         -0.2998         calculate D2E/DX2 analytically  !
 ! D121  D(15,41,42,44)       -179.6909         calculate D2E/DX2 analytically  !
 ! D122  D(15,41,42,47)          1.3944         calculate D2E/DX2 analytically  !
 ! D123  D(43,41,42,44)          0.1993         calculate D2E/DX2 analytically  !
 ! D124  D(43,41,42,47)       -178.7155         calculate D2E/DX2 analytically  !
 ! D125  D(15,41,43,45)       -179.9985         calculate D2E/DX2 analytically  !
 ! D126  D(15,41,43,48)          1.0798         calculate D2E/DX2 analytically  !
 ! D127  D(42,41,43,45)          0.1118         calculate D2E/DX2 analytically  !
 ! D128  D(42,41,43,48)       -178.8098         calculate D2E/DX2 analytically  !
 ! D129  D(41,42,44,46)         -0.3278         calculate D2E/DX2 analytically  !
 ! D130  D(41,42,44,49)       -179.8393         calculate D2E/DX2 analytically  !
 ! D131  D(47,42,44,46)        178.5851         calculate D2E/DX2 analytically  !
 ! D132  D(47,42,44,49)         -0.9264         calculate D2E/DX2 analytically  !
 ! D133  D(41,43,45,46)         -0.2961         calculate D2E/DX2 analytically  !
 ! D134  D(41,43,45,50)       -179.8578         calculate D2E/DX2 analytically  !
 ! D135  D(48,43,45,46)        178.6286         calculate D2E/DX2 analytically  !
 ! D136  D(48,43,45,50)         -0.9331         calculate D2E/DX2 analytically  !
 ! D137  D(42,44,46,45)          0.1419         calculate D2E/DX2 analytically  !
 ! D138  D(42,44,46,51)       -179.8049         calculate D2E/DX2 analytically  !
 ! D139  D(49,44,46,45)        179.6513         calculate D2E/DX2 analytically  !
 ! D140  D(49,44,46,51)         -0.2956         calculate D2E/DX2 analytically  !
 ! D141  D(43,45,46,44)          0.1678         calculate D2E/DX2 analytically  !
 ! D142  D(43,45,46,51)       -179.8853         calculate D2E/DX2 analytically  !
 ! D143  D(50,45,46,44)        179.7272         calculate D2E/DX2 analytically  !
 ! D144  D(50,45,46,51)         -0.3259         calculate D2E/DX2 analytically  !
 --------------------------------------------------------------------------------
 Trust Radius=3.00D-01 FncErr=1.00D-07 GrdErr=1.00D-06
 Number of steps in this run=    303 maximum allowed number of steps=    306.
 GradGradGradGradGradGradGradGradGradGradGradGradGradGradGradGradGradGrad

 Leave Link  103 at Wed Apr 22 09:45:29 2020, MaxMem= 12079595520 cpu:         0.4
 (Enter /scratch/prg/gaussian/bin/g09/l202.exe)
 Symmetry turned off by external request.
 Stoichiometry    C27H19BF2N2
 Framework group  C1[X(C27H19BF2N2)]
 Deg. of freedom   147
 Full point group                 C1      NOp   1
                          Input orientation:                          
 ---------------------------------------------------------------------
 Center     Atomic      Atomic             Coordinates (Angstroms)
 Number     Number       Type             X           Y           Z
 ---------------------------------------------------------------------
      1          7           0       12.396353   -9.432420   -1.149361
      2          6           0       13.167173   -9.796390   -2.173702
      3          6           0       14.055518   -8.748276   -2.525878
      4          6           0       13.773782   -7.701892   -1.647876
      5          6           0       12.740398   -8.137461   -0.783844
      6          6           0       11.502017   -5.110016    0.766463
      7          6           0       11.869791   -3.815946    1.126180
      8          6           0       13.204761   -3.517101    1.399748
      9          6           0       14.174773   -4.515579    1.307224
     10          6           0       13.815300   -5.808204    0.934286
     11          6           0       12.474137   -6.115767    0.662689
     12          6           0       12.083736   -7.488222    0.274493
     13          6           0       11.065080   -8.150305    0.979469
     14          6           0       10.348865   -7.777968    2.142494
     15          6           0        9.520119   -8.846202    2.484298
     16          6           0        9.764544   -9.850364    1.512780
     17          7           0       10.672464   -9.435361    0.630036
     18          9           0       11.590206  -11.513832   -0.198849
     19          5           0       11.186765  -10.246522   -0.596316
     20          9           0       10.195101  -10.325185   -1.568491
     21          1           0       13.063875  -10.785744   -2.614617
     22          1           0       14.228503   -6.715337   -1.633610
     23          1           0       10.461136   -5.344110    0.538870
     24          1           0       11.109553   -3.037096    1.190377
     25          1           0       13.489690   -2.504364    1.686569
     26          1           0       15.217613   -4.288682    1.530154
     27          1           0       14.569076   -6.594673    0.878125
     28          1           0       10.474554   -6.843535    2.682550
     29          1           0        9.315652  -10.836933    1.417499
     30          6           0       15.055130   -8.784584   -3.605141
     31          6           0       15.546785   -7.596005   -4.164306
     32          6           0       15.532397  -10.006306   -4.101966
     33          6           0       16.483633   -7.628386   -5.193838
     34          6           0       16.474496  -10.037777   -5.127145
     35          6           0       16.952993   -8.849409   -5.679148
     36          1           0       15.202409   -6.635730   -3.776910
     37          1           0       15.149688  -10.944098   -3.695907
     38          1           0       16.855255   -6.693343   -5.614753
     39          1           0       16.831336  -10.997828   -5.501779
     40          1           0       17.688779   -8.874526   -6.483477
     41          6           0        8.583911   -8.943373    3.615273
     42          6           0        8.073983   -7.784970    4.219475
     43          6           0        8.183644  -10.191595    4.114279
     44          6           0        7.192845   -7.872037    5.294003
     45          6           0        7.297150  -10.277843    5.185075
     46          6           0        6.799152   -9.119002    5.780868
     47          1           0        8.358076   -6.805640    3.830807
     48          1           0        8.583031  -11.105848    3.672028
     49          1           0        6.804880   -6.959919    5.749054
     50          1           0        6.999455  -11.257532    5.560556
     51          1           0        6.106612   -9.187239    6.620346
 ---------------------------------------------------------------------
 Rotational constants (GHZ):      0.2451283      0.0709429      0.0567520
 Leave Link  202 at Wed Apr 22 09:45:29 2020, MaxMem= 12079595520 cpu:         0.2
 (Enter /scratch/prg/gaussian/bin/g09/l301.exe)
 Standard basis: CC-pVDZ (5D, 7F)
 Ernie: Thresh=  0.10000D-02 Tol=  0.10000D-05 Strict=F.
 Ernie:  64 primitive shells out of 799 were deleted.
   543 basis functions,  1189 primitive gaussians,   575 cartesian basis functions
   109 alpha electrons      109 beta electrons
       nuclear repulsion energy      2847.9971637817 Hartrees.
 IExCor= 4336 DFT=T Ex+Corr=M062X ExCW=0 ScaHFX=  0.540000
 ScaDFX=  1.000000  1.000000  1.000000  1.000000 ScalE2=  1.000000  1.000000
 IRadAn=      5 IRanWt=     -1 IRanGd=            0 ICorTp=0 IEmpDi=  4
 NAtoms=   51 NActive=   51 NUniq=   51 SFac= 1.00D+00 NAtFMM=   60 NAOKFM=F Big=F
 Integral buffers will be    131072 words long.
 Raffenetti 2 integral format.
 Two-electron integral symmetry is turned off.
 Force inversion solution in PCM.
 ------------------------------------------------------------------------------
 Polarizable Continuum Model (PCM)
 =================================
 Model                : C-PCM.
 Atomic radii         : UFF (Universal Force Field).
 Polarization charges : Total charges.
 Charge compensation  : None.
 Solution method      : Matrix inversion.
 Cavity type          : Scaled VdW (van der Waals Surface) (Alpha=1.100).
 Cavity algorithm     : GePol (No added spheres)
                        Default sphere list used, NSphG=   51.
                        Lebedev-Laikov grids with approx.  5.0 points / Ang**2.
                        Smoothing algorithm: Karplus/York (Gamma=1.0000).
                        Polarization charges: spherical gaussians, with
                                              point-specific exponents (IZeta= 3).
                        Self-potential: point-specific (ISelfS= 7).
                        Self-field    : sphere-specific E.n sum rule (ISelfD= 2).
 1st derivatives      : Analytical E(r).r(x)/FMM algorithm (CHGder, D1EAlg=3).
                        Cavity 1st derivative terms included.
 2nd derivatives      : Analytical E(r).r(xy)/FMM algorithm (CHGder, D2EAlg=3).
                        Cavity 2nd derivative terms included.
 Solvent              : Toluene, Eps=   2.374100 Eps(inf)=   2.238315
 ------------------------------------------------------------------------------
 GePol: Number of generator spheres                  =      51
 GePol: Total number of spheres                      =      51
 GePol: Number of exposed spheres                    =      51 (100.00%)
 GePol: Number of points                             =    3800
 GePol: Average weight of points                     =       0.13
 GePol: Minimum weight of points                     =   0.29D-10
 GePol: Maximum weight of points                     =    0.20577
 GePol: Number of points with low weight             =     247
 GePol: Fraction of low-weight points (<1% of avg)   =       6.50%
 GePol: Cavity surface area                          =    493.791 Ang**2
 GePol: Cavity volume                                =    555.472 Ang**3
 Leave Link  301 at Wed Apr 22 09:45:29 2020, MaxMem= 12079595520 cpu:         2.2
 (Enter /scratch/prg/gaussian/bin/g09/linda-exe/l302.exel)
 NPDir=0 NMtPBC=     1 NCelOv=     1 NCel=       1 NClECP=     1 NCelD=      1
         NCelK=      1 NCelE2=     1 NClLst=     1 CellRange=     0.0.
 One-electron integrals computed using PRISM.
 NBasis=   543 RedAO= T EigKep=  2.19D-04  NBF=   543
 NBsUse=   543 1.00D-06 EigRej= -1.00D+00 NBFU=   543
 Precomputing XC quadrature grid using
 IXCGrd= 4 IRadAn=           5 IRanWt=          -1 IRanGd=           0 AccXCQ= 0.00D+00.
 Generated NRdTot=       0 NPtTot=           0 NUsed=           0 NTot=          32
 NSgBfM=   551   551   551   551   551 MxSgAt=    51 MxSgA2=    51.
 Leave Link  302 at Wed Apr 22 09:45:32 2020, MaxMem= 12079595520 cpu:        20.0
 (Enter /scratch/prg/gaussian/bin/g09/l303.exe)
 DipDrv:  MaxL=1.
 Leave Link  303 at Wed Apr 22 09:45:32 2020, MaxMem= 12079595520 cpu:         3.1
 (Enter /scratch/prg/gaussian/bin/g09/linda-exe/l401.exel)
 ExpMin= 9.54D-02 ExpMax= 1.47D+04 ExpMxC= 5.03D+02 IAcc=3 IRadAn=         5 AccDes= 0.00D+00
 Harris functional with IExCor= 1009 and IRadAn=       5 diagonalized for initial guess.
 HarFok:  IExCor= 1009 AccDes= 0.00D+00 IRadAn=         5 IDoV= 1 UseB2=F ITyADJ=14
 ICtDFT=  3500011 ScaDFX=  1.000000  1.000000  1.000000  1.000000
 FoFCou: FMM=F IPFlag=           0 FMFlag=      100000 FMFlg1=           0
         NFxFlg=           0 DoJE=T BraDBF=F KetDBF=T FulRan=T
         wScrn=  0.000000 ICntrl=     500 IOpCl=  0 I1Cent=   200000004 NGrid=           0
         NMat0=    1 NMatS0=      1 NMatT0=    0 NMatD0=    1 NMtDS0=    0 NMtDT0=    0
 Symmetry not used in FoFCou.
 Harris En= -1373.29504793597    
 JPrj=0 DoOrth=F DoCkMO=F.
 Leave Link  401 at Wed Apr 22 09:45:37 2020, MaxMem= 12079595520 cpu:        51.2
 (Enter /scratch/prg/gaussian/bin/g09/linda-exe/l502.exel)
 Closed shell SCF:
 Using DIIS extrapolation, IDIIS=  1040.
 Two-electron integral symmetry not used.
 Keep R1 ints in memory in canonical form, NReq=11003700133.
 IVT=     1020877 IEndB=     1020877 NGot= 12079595520 MDV=  1171446588
 LenX=  1171446588 LenY=  1171115388
 Requested convergence on RMS density matrix=1.00D-08 within 128 cycles.
 Requested convergence on MAX density matrix=1.00D-06.
 Requested convergence on             energy=1.00D-06.
 No special actions if energy rises.
 FoFCou: FMM=F IPFlag=           0 FMFlag=           0 FMFlg1=           0
         NFxFlg=           0 DoJE=F BraDBF=F KetDBF=F FulRan=T
         wScrn=  0.000000 ICntrl=     600 IOpCl=  0 I1Cent=           0 NGrid=           0
         NMat0=    1 NMatS0= 147696 NMatT0=    0 NMatD0=    1 NMtDS0=    0 NMtDT0=    0
 Symmetry not used in FoFCou.

 Cycle   1  Pass 1  IDiag  1:
 Inv3:  Mode=1 IEnd=    43320000.
 Iteration    1 A*A^-1 deviation from unit magnitude is 1.13D-14 for   2859.
 Iteration    1 A*A^-1 deviation from orthogonality  is 6.52D-15 for   3579   1913.
 Iteration    1 A^-1*A deviation from unit magnitude is 1.13D-14 for   2859.
 Iteration    1 A^-1*A deviation from orthogonality  is 4.77D-15 for   2625   1739.
 E= -1373.63203936953    
 DIIS: error= 4.05D-02 at cycle   1 NSaved=   1.
 NSaved= 1 IEnMin= 1 EnMin= -1373.63203936953     IErMin= 1 ErrMin= 4.05D-02
 ErrMax= 4.05D-02  0.00D+00 EMaxC= 1.00D-01 BMatC= 5.22D-01 BMatP= 5.22D-01
 IDIUse=3 WtCom= 5.95D-01 WtEn= 4.05D-01
 Coeff-Com:  0.100D+01
 Coeff-En:   0.100D+01
 Coeff:      0.100D+01
 Gap=     0.159 Goal=   None    Shift=    0.000
 GapD=    0.159 DampG=1.000 DampE=0.500 DampFc=0.5000 IDamp=-1.
 Damping current iteration by 5.00D-01
 RMSDP=3.16D-03 MaxDP=1.17D-01              OVMax= 1.48D-01

 Cycle   2  Pass 1  IDiag  1:
 E= -1373.90914133813     Delta-E=       -0.277101968595 Rises=F Damp=T
 DIIS: error= 7.91D-03 at cycle   2 NSaved=   2.
 NSaved= 2 IEnMin= 2 EnMin= -1373.90914133813     IErMin= 2 ErrMin= 7.91D-03
 ErrMax= 7.91D-03  0.00D+00 EMaxC= 1.00D-01 BMatC= 4.40D-02 BMatP= 5.22D-01
 IDIUse=3 WtCom= 9.21D-01 WtEn= 7.91D-02
 Coeff-Com: -0.142D+00 0.114D+01
 Coeff-En:   0.000D+00 0.100D+01
 Coeff:     -0.131D+00 0.113D+01
 Gap=     0.186 Goal=   None    Shift=    0.000
 RMSDP=1.08D-03 MaxDP=6.33D-02 DE=-2.77D-01 OVMax= 9.15D-02

 Cycle   3  Pass 1  IDiag  1:
 E= -1374.15154980593     Delta-E=       -0.242408467807 Rises=F Damp=F
 DIIS: error= 5.78D-03 at cycle   3 NSaved=   3.
 NSaved= 3 IEnMin= 3 EnMin= -1374.15154980593     IErMin= 3 ErrMin= 5.78D-03
 ErrMax= 5.78D-03  0.00D+00 EMaxC= 1.00D-01 BMatC= 1.72D-02 BMatP= 4.40D-02
 IDIUse=3 WtCom= 9.42D-01 WtEn= 5.78D-02
 Coeff-Com: -0.113D+00 0.466D+00 0.647D+00
 Coeff-En:   0.000D+00 0.000D+00 0.100D+01
 Coeff:     -0.107D+00 0.439D+00 0.668D+00
 Gap=     0.160 Goal=   None    Shift=    0.000
 RMSDP=3.41D-04 MaxDP=1.89D-02 DE=-2.42D-01 OVMax= 4.24D-02

 Cycle   4  Pass 1  IDiag  1:
 E= -1374.16338108733     Delta-E=       -0.011831281394 Rises=F Damp=F
 DIIS: error= 2.29D-03 at cycle   4 NSaved=   4.
 NSaved= 4 IEnMin= 4 EnMin= -1374.16338108733     IErMin= 4 ErrMin= 2.29D-03
 ErrMax= 2.29D-03  0.00D+00 EMaxC= 1.00D-01 BMatC= 4.68D-03 BMatP= 1.72D-02
 IDIUse=3 WtCom= 9.77D-01 WtEn= 2.29D-02
 Coeff-Com: -0.406D-01 0.114D+00 0.375D+00 0.551D+00
 Coeff-En:   0.000D+00 0.000D+00 0.218D+00 0.782D+00
 Coeff:     -0.397D-01 0.112D+00 0.372D+00 0.556D+00
 Gap=     0.162 Goal=   None    Shift=    0.000
 RMSDP=1.35D-04 MaxDP=7.63D-03 DE=-1.18D-02 OVMax= 1.94D-02

 Cycle   5  Pass 1  IDiag  1:
 E= -1374.16778736944     Delta-E=       -0.004406282114 Rises=F Damp=F
 DIIS: error= 3.79D-04 at cycle   5 NSaved=   5.
 NSaved= 5 IEnMin= 5 EnMin= -1374.16778736944     IErMin= 5 ErrMin= 3.79D-04
 ErrMax= 3.79D-04  0.00D+00 EMaxC= 1.00D-01 BMatC= 2.08D-04 BMatP= 4.68D-03
 IDIUse=3 WtCom= 9.96D-01 WtEn= 3.79D-03
 Coeff-Com: -0.996D-02 0.176D-01 0.121D+00 0.256D+00 0.616D+00
 Coeff-En:   0.000D+00 0.000D+00 0.000D+00 0.000D+00 0.100D+01
 Coeff:     -0.992D-02 0.175D-01 0.121D+00 0.255D+00 0.617D+00
 Gap=     0.162 Goal=   None    Shift=    0.000
 RMSDP=3.13D-05 MaxDP=1.90D-03 DE=-4.41D-03 OVMax= 3.88D-03

 Cycle   6  Pass 1  IDiag  1:
 E= -1374.16798550355     Delta-E=       -0.000198134112 Rises=F Damp=F
 DIIS: error= 1.63D-04 at cycle   6 NSaved=   6.
 NSaved= 6 IEnMin= 6 EnMin= -1374.16798550355     IErMin= 6 ErrMin= 1.63D-04
 ErrMax= 1.63D-04  0.00D+00 EMaxC= 1.00D-01 BMatC= 1.66D-05 BMatP= 2.08D-04
 IDIUse=3 WtCom= 9.98D-01 WtEn= 1.63D-03
 Coeff-Com: -0.208D-02 0.130D-02 0.309D-01 0.794D-01 0.287D+00 0.604D+00
 Coeff-En:   0.000D+00 0.000D+00 0.000D+00 0.000D+00 0.000D+00 0.100D+01
 Coeff:     -0.207D-02 0.130D-02 0.308D-01 0.793D-01 0.286D+00 0.604D+00
 Gap=     0.162 Goal=   None    Shift=    0.000
 RMSDP=9.18D-06 MaxDP=3.36D-04 DE=-1.98D-04 OVMax= 1.70D-03

 Cycle   7  Pass 1  IDiag  1:
 E= -1374.16800292665     Delta-E=       -0.000017423093 Rises=F Damp=F
 DIIS: error= 3.83D-05 at cycle   7 NSaved=   7.
 NSaved= 7 IEnMin= 7 EnMin= -1374.16800292665     IErMin= 7 ErrMin= 3.83D-05
 ErrMax= 3.83D-05  0.00D+00 EMaxC= 1.00D-01 BMatC= 1.44D-06 BMatP= 1.66D-05
 IDIUse=1 WtCom= 1.00D+00 WtEn= 0.00D+00
 Coeff-Com:  0.216D-03-0.143D-02-0.219D-03 0.595D-02 0.534D-01 0.250D+00
 Coeff-Com:  0.692D+00
 Coeff:      0.216D-03-0.143D-02-0.219D-03 0.595D-02 0.534D-01 0.250D+00
 Coeff:      0.692D+00
 Gap=     0.162 Goal=   None    Shift=    0.000
 RMSDP=3.37D-06 MaxDP=1.77D-04 DE=-1.74D-05 OVMax= 5.48D-04

 Cycle   8  Pass 1  IDiag  1:
 E= -1374.16800460390     Delta-E=       -0.000001677255 Rises=F Damp=F
 DIIS: error= 1.18D-05 at cycle   8 NSaved=   8.
 NSaved= 8 IEnMin= 8 EnMin= -1374.16800460390     IErMin= 8 ErrMin= 1.18D-05
 ErrMax= 1.18D-05  0.00D+00 EMaxC= 1.00D-01 BMatC= 2.11D-07 BMatP= 1.44D-06
 IDIUse=1 WtCom= 1.00D+00 WtEn= 0.00D+00
 Coeff-Com:  0.566D-03-0.102D-02-0.650D-02-0.136D-01-0.343D-01-0.727D-02
 Coeff-Com:  0.298D+00 0.764D+00
 Coeff:      0.566D-03-0.102D-02-0.650D-02-0.136D-01-0.343D-01-0.727D-02
 Coeff:      0.298D+00 0.764D+00
 Gap=     0.162 Goal=   None    Shift=    0.000
 RMSDP=1.45D-06 MaxDP=6.23D-05 DE=-1.68D-06 OVMax= 2.96D-04

 Cycle   9  Pass 1  IDiag  1:
 E= -1374.16800490454     Delta-E=       -0.000000300639 Rises=F Damp=F
 DIIS: error= 3.50D-06 at cycle   9 NSaved=   9.
 NSaved= 9 IEnMin= 9 EnMin= -1374.16800490454     IErMin= 9 ErrMin= 3.50D-06
 ErrMax= 3.50D-06  0.00D+00 EMaxC= 1.00D-01 BMatC= 1.67D-08 BMatP= 2.11D-07
 IDIUse=1 WtCom= 1.00D+00 WtEn= 0.00D+00
 Coeff-Com:  0.205D-03-0.304D-03-0.244D-02-0.554D-02-0.163D-01-0.143D-01
 Coeff-Com:  0.763D-01 0.302D+00 0.660D+00
 Coeff:      0.205D-03-0.304D-03-0.244D-02-0.554D-02-0.163D-01-0.143D-01
 Coeff:      0.763D-01 0.302D+00 0.660D+00
 Gap=     0.162 Goal=   None    Shift=    0.000
 RMSDP=3.81D-07 MaxDP=2.94D-05 DE=-3.01D-07 OVMax= 6.15D-05

 Cycle  10  Pass 1  IDiag  1:
 E= -1374.16800492419     Delta-E=       -0.000000019648 Rises=F Damp=F
 DIIS: error= 2.42D-06 at cycle  10 NSaved=  10.
 NSaved=10 IEnMin=10 EnMin= -1374.16800492419     IErMin=10 ErrMin= 2.42D-06
 ErrMax= 2.42D-06  0.00D+00 EMaxC= 1.00D-01 BMatC= 3.35D-09 BMatP= 1.67D-08
 IDIUse=1 WtCom= 1.00D+00 WtEn= 0.00D+00
 Coeff-Com: -0.242D-05 0.307D-04 0.348D-04-0.125D-03-0.152D-02-0.485D-02
 Coeff-Com: -0.193D-01 0.397D-02 0.314D+00 0.708D+00
 Coeff:     -0.242D-05 0.307D-04 0.348D-04-0.125D-03-0.152D-02-0.485D-02
 Coeff:     -0.193D-01 0.397D-02 0.314D+00 0.708D+00
 Gap=     0.162 Goal=   None    Shift=    0.000
 RMSDP=1.47D-07 MaxDP=6.26D-06 DE=-1.96D-08 OVMax= 2.14D-05

 Cycle  11  Pass 1  IDiag  1:
 E= -1374.16800492847     Delta-E=       -0.000000004279 Rises=F Damp=F
 DIIS: error= 4.41D-07 at cycle  11 NSaved=  11.
 NSaved=11 IEnMin=11 EnMin= -1374.16800492847     IErMin=11 ErrMin= 4.41D-07
 ErrMax= 4.41D-07  0.00D+00 EMaxC= 1.00D-01 BMatC= 2.22D-10 BMatP= 3.35D-09
 IDIUse=1 WtCom= 1.00D+00 WtEn= 0.00D+00
 Coeff-Com: -0.236D-04 0.449D-04 0.283D-03 0.577D-03 0.121D-02-0.310D-03
 Coeff-Com: -0.169D-01-0.344D-01 0.399D-01 0.253D+00 0.757D+00
 Coeff:     -0.236D-04 0.449D-04 0.283D-03 0.577D-03 0.121D-02-0.310D-03
 Coeff:     -0.169D-01-0.344D-01 0.399D-01 0.253D+00 0.757D+00
 Gap=     0.162 Goal=   None    Shift=    0.000
 RMSDP=4.78D-08 MaxDP=1.89D-06 DE=-4.28D-09 OVMax= 8.20D-06

 Cycle  12  Pass 1  IDiag  1:
 E= -1374.16800492875     Delta-E=       -0.000000000285 Rises=F Damp=F
 DIIS: error= 1.60D-07 at cycle  12 NSaved=  12.
 NSaved=12 IEnMin=12 EnMin= -1374.16800492875     IErMin=12 ErrMin= 1.60D-07
 ErrMax= 1.60D-07  0.00D+00 EMaxC= 1.00D-01 BMatC= 1.88D-11 BMatP= 2.22D-10
 IDIUse=1 WtCom= 1.00D+00 WtEn= 0.00D+00
 Coeff-Com: -0.765D-05 0.125D-04 0.928D-04 0.205D-03 0.513D-03 0.329D-03
 Coeff-Com: -0.394D-02-0.109D-01-0.930D-02 0.337D-01 0.274D+00 0.716D+00
 Coeff:     -0.765D-05 0.125D-04 0.928D-04 0.205D-03 0.513D-03 0.329D-03
 Coeff:     -0.394D-02-0.109D-01-0.930D-02 0.337D-01 0.274D+00 0.716D+00
 Gap=     0.162 Goal=   None    Shift=    0.000
 RMSDP=1.06D-08 MaxDP=6.84D-07 DE=-2.85D-10 OVMax= 1.84D-06

 Cycle  13  Pass 1  IDiag  1:
 E= -1374.16800492880     Delta-E=       -0.000000000047 Rises=F Damp=F
 DIIS: error= 4.97D-08 at cycle  13 NSaved=  13.
 NSaved=13 IEnMin=13 EnMin= -1374.16800492880     IErMin=13 ErrMin= 4.97D-08
 ErrMax= 4.97D-08  0.00D+00 EMaxC= 1.00D-01 BMatC= 1.32D-12 BMatP= 1.88D-11
 IDIUse=1 WtCom= 1.00D+00 WtEn= 0.00D+00
 Coeff-Com: -0.309D-06 0.218D-07 0.460D-05 0.139D-04 0.572D-04 0.132D-03
 Coeff-Com:  0.148D-03-0.459D-03-0.698D-02-0.128D-01 0.132D-01 0.210D+00
 Coeff-Com:  0.797D+00
 Coeff:     -0.309D-06 0.218D-07 0.460D-05 0.139D-04 0.572D-04 0.132D-03
 Coeff:      0.148D-03-0.459D-03-0.698D-02-0.128D-01 0.132D-01 0.210D+00
 Coeff:      0.797D+00
 Gap=     0.162 Goal=   None    Shift=    0.000
 RMSDP=3.98D-09 MaxDP=1.36D-07 DE=-4.73D-11 OVMax= 9.03D-07

 Error on total polarization charges =  0.00954
 SCF Done:  E(RM062X) =  -1374.16800493     A.U. after   13 cycles
            NFock= 13  Conv=0.40D-08     -V/T= 2.0062
 KE= 1.365648541518D+03 PE=-8.895864945919D+03 EE= 3.308051235691D+03
 Leave Link  502 at Wed Apr 22 09:56:38 2020, MaxMem= 12079595520 cpu:      2809.4
 (Enter /scratch/prg/gaussian/bin/g09/l801.exe)
 DoSCS=F DFT=T ScalE2(SS,OS)=  1.000000  1.000000
 Range of M.O.s used for correlation:     1   543
 NBasis=   543 NAE=   109 NBE=   109 NFC=     0 NFV=     0
 NROrb=    543 NOA=   109 NOB=   109 NVA=   434 NVB=   434

 **** Warning!!: The largest alpha MO coefficient is  0.12607985D+02

 Leave Link  801 at Wed Apr 22 09:56:44 2020, MaxMem= 12079595520 cpu:         2.1
 (Enter /scratch/prg/gaussian/bin/g09/linda-exe/l1101.exel)
 Using compressed storage, NAtomX=    51.
 Will process     52 centers per pass.
 Leave Link 1101 at Wed Apr 22 09:56:48 2020, MaxMem= 12079595520 cpu:        42.0
 (Enter /scratch/prg/gaussian/bin/g09/l1102.exe)
 Symmetrizing basis deriv contribution to polar:
 IMax=3 JMax=2 DiffMx= 0.00D+00
 Leave Link 1102 at Wed Apr 22 09:56:50 2020, MaxMem= 12079595520 cpu:         4.5
 (Enter /scratch/prg/gaussian/bin/g09/linda-exe/l1110.exel)
 Forming Gx(P) for the SCF density, NAtomX=    51.
 Integral derivatives from FoFJK, PRISM(SPDF).
 Do as many integral derivatives as possible in FoFJK.
 G2DrvN: MDV=   12079595008.
 G2DrvN: will do    52 centers at a time, making    1 passes.
 Calling FoFCou, ICntrl=  3107 FMM=F I1Cent=   0 AccDes= 0.00D+00.
 FoFJK:  IHMeth= 1 ICntrl=    3107 DoSepK=F KAlg= 0 I1Cent=   0 FoldK=F
 IRaf=         0 NMat=   1 IRICut=       1 DoRegI=T DoRafI=F ISym2E= 0.
 FoFCou: FMM=F IPFlag=           0 FMFlag=      100000 FMFlg1=           0
         NFxFlg=           0 DoJE=F BraDBF=F KetDBF=F FulRan=T
         wScrn=  0.000000 ICntrl=    3107 IOpCl=  0 I1Cent=           0 NGrid=           0
         NMat0=    1 NMatS0=      1 NMatT0=    0 NMatD0=    1 NMtDS0=    0 NMtDT0=    0
 Symmetry not used in FoFCou.
 NEqPCM:  Using equilibrium solvation (IEInf=0, Eps=   2.3741, EpsInf=   2.2383)
 G2PCM: DoFxE=T DoFxN=T DoGrad=T DoDP/DQ/DG/TGxP=FFFF NFrqRd=   0 IEInf=0 SqF1=F DoCFld=F IF1Alg=4.
 GePol: Maximum number of non-zero 1st derivatives   =     215
 End of G2Drv F.D. properties file   721 does not exist.
 End of G2Drv F.D. properties file   722 does not exist.
 End of G2Drv F.D. properties file   788 does not exist.
 Leave Link 1110 at Wed Apr 22 10:09:22 2020, MaxMem= 12079595520 cpu:      8979.0
 (Enter /scratch/prg/gaussian/bin/g09/linda-exe/l1002.exel)
 Minotr:  Closed shell wavefunction.
          IDoAtm=11111111111111111111111111111111111111111111111111
          IDoAtm=1
 NEqPCM:  Using equilibrium solvation (IEInf=0, Eps=   2.3741, EpsInf=   2.2383)
          Direct CPHF calculation.
          Differentiating once with respect to nuclear coordinates.
          Requested convergence is 1.0D-08 RMS, and 1.0D-07 maximum.
          Secondary convergence is 1.0D-12 RMS, and 1.0D-12 maximum.
          NewPWx=T KeepS1=F KeepF1=F KeepIn=T MapXYZ=F SortEE=F KeepMc=T.
          MDV=   12079594463 using IRadAn=       1.
 Generate precomputed XC quadrature information.
 Keep R1 ints in memory in canonical form, NReq=11002700197.
 FoFCou: FMM=F IPFlag=           0 FMFlag=           0 FMFlg1=           0
         NFxFlg=           0 DoJE=F BraDBF=F KetDBF=F FulRan=T
         wScrn=  0.000000 ICntrl=     600 IOpCl=  0 I1Cent=           0 NGrid=           0
         NMat0=    1 NMatS0= 147696 NMatT0=    0 NMatD0=    1 NMtDS0=    0 NMtDT0=    0
 Symmetry not used in FoFCou.
          Solving linear equations simultaneously, MaxMat=       0.
          There are   156 degrees of freedom in the 1st order CPHF.  IDoFFX=6 NUNeed=     0.
    150 vectors produced by pass  0 Test12= 4.73D-14 1.00D-09 XBig12= 9.46D-02 1.06D-01.
 AX will form   150 AO Fock derivatives at one time.
    150 vectors produced by pass  1 Test12= 4.73D-14 1.00D-09 XBig12= 1.28D-02 2.53D-02.
    150 vectors produced by pass  2 Test12= 4.73D-14 1.00D-09 XBig12= 2.45D-04 2.85D-03.
    150 vectors produced by pass  3 Test12= 4.73D-14 1.00D-09 XBig12= 1.82D-06 1.87D-04.
    150 vectors produced by pass  4 Test12= 4.73D-14 1.00D-09 XBig12= 9.75D-09 9.29D-06.
    150 vectors produced by pass  5 Test12= 4.73D-14 1.00D-09 XBig12= 4.29D-11 5.89D-07.
    101 vectors produced by pass  6 Test12= 4.73D-14 1.00D-09 XBig12= 1.48D-13 2.90D-08.
     11 vectors produced by pass  7 Test12= 4.73D-14 1.00D-09 XBig12= 4.29D-16 1.41D-09.
 InvSVY:  IOpt=1 It=  1 EMax= 1.05D-15
 Solved reduced A of dimension  1012 with   156 vectors.
 End of Minotr F.D. properties file   721 does not exist.
 End of Minotr F.D. properties file   722 does not exist.
 End of Minotr F.D. properties file   788 does not exist.
 Leave Link 1002 at Wed Apr 22 10:40:05 2020, MaxMem= 12079595520 cpu:     19928.4
 (Enter /scratch/prg/gaussian/bin/g09/l601.exe)
 Copying SCF densities to generalized density rwf, IOpCl= 0 IROHF=0.

 **********************************************************************

            Population analysis using the SCF density.

 **********************************************************************

 Alpha  occ. eigenvalues --  -25.20877 -25.20498 -14.80491 -14.80468 -10.62243
 Alpha  occ. eigenvalues --  -10.60781 -10.60775 -10.60042 -10.60024 -10.58790
 Alpha  occ. eigenvalues --  -10.57546 -10.57544 -10.57196 -10.57160 -10.57140
 Alpha  occ. eigenvalues --  -10.57134 -10.57122 -10.57061 -10.57042 -10.56799
 Alpha  occ. eigenvalues --  -10.56772 -10.55874 -10.55872 -10.55856 -10.55854
 Alpha  occ. eigenvalues --  -10.55786 -10.55786 -10.55769 -10.55768 -10.55634
 Alpha  occ. eigenvalues --  -10.55632  -7.13344  -1.31310  -1.27987  -1.11913
 Alpha  occ. eigenvalues --   -1.09992  -0.98987  -0.97029  -0.96909  -0.93591
 Alpha  occ. eigenvalues --   -0.91153  -0.90115  -0.86350  -0.85526  -0.85489
 Alpha  occ. eigenvalues --   -0.84606  -0.84526  -0.84371  -0.81417  -0.76894
 Alpha  occ. eigenvalues --   -0.72382  -0.70915  -0.70740  -0.70100  -0.69875
 Alpha  occ. eigenvalues --   -0.68596  -0.67430  -0.66291  -0.65781  -0.65231
 Alpha  occ. eigenvalues --   -0.62223  -0.61133  -0.60122  -0.58207  -0.57614
 Alpha  occ. eigenvalues --   -0.57234  -0.57166  -0.54719  -0.54085  -0.53085
 Alpha  occ. eigenvalues --   -0.53037  -0.52701  -0.52339  -0.52238  -0.51735
 Alpha  occ. eigenvalues --   -0.51133  -0.50897  -0.50317  -0.49974  -0.49361
 Alpha  occ. eigenvalues --   -0.48716  -0.48697  -0.47951  -0.47081  -0.46964
 Alpha  occ. eigenvalues --   -0.46718  -0.46133  -0.45365  -0.45187  -0.44811
 Alpha  occ. eigenvalues --   -0.44378  -0.44270  -0.42056  -0.41951  -0.41678
 Alpha  occ. eigenvalues --   -0.40970  -0.40555  -0.40043  -0.39880  -0.37628
 Alpha  occ. eigenvalues --   -0.35182  -0.34970  -0.32544  -0.31725  -0.31205
 Alpha  occ. eigenvalues --   -0.31170  -0.29884  -0.28442  -0.25352
 Alpha virt. eigenvalues --   -0.09105   0.00319   0.00769   0.01006   0.01111
 Alpha virt. eigenvalues --    0.02192   0.02352   0.06132   0.09178   0.10035
 Alpha virt. eigenvalues --    0.10233   0.10339   0.11556   0.12214   0.12481
 Alpha virt. eigenvalues --    0.12706   0.13053   0.13857   0.14241   0.14976
 Alpha virt. eigenvalues --    0.15923   0.16087   0.16587   0.17082   0.17536
 Alpha virt. eigenvalues --    0.18046   0.18551   0.19330   0.19873   0.20403
 Alpha virt. eigenvalues --    0.20883   0.21030   0.22116   0.22583   0.23361
 Alpha virt. eigenvalues --    0.24339   0.25171   0.25267   0.25370   0.26248
 Alpha virt. eigenvalues --    0.27549   0.28492   0.29012   0.30093   0.31098
 Alpha virt. eigenvalues --    0.31724   0.31855   0.32235   0.32915   0.32982
 Alpha virt. eigenvalues --    0.33364   0.33969   0.34805   0.35915   0.36471
 Alpha virt. eigenvalues --    0.37574   0.37859   0.38519   0.38576   0.40057
 Alpha virt. eigenvalues --    0.41257   0.42127   0.43502   0.44306   0.45127
 Alpha virt. eigenvalues --    0.45823   0.46008   0.47304   0.47795   0.48117
 Alpha virt. eigenvalues --    0.48538   0.49668   0.49727   0.49770   0.50312
 Alpha virt. eigenvalues --    0.51452   0.51592   0.52428   0.52600   0.52781
 Alpha virt. eigenvalues --    0.53188   0.53391   0.53855   0.53974   0.54378
 Alpha virt. eigenvalues --    0.54507   0.54830   0.54929   0.55338   0.55440
 Alpha virt. eigenvalues --    0.55823   0.56009   0.56105   0.56216   0.56378
 Alpha virt. eigenvalues --    0.56941   0.57163   0.57356   0.57421   0.58316
 Alpha virt. eigenvalues --    0.58787   0.59127   0.59735   0.59830   0.60192
 Alpha virt. eigenvalues --    0.60722   0.60997   0.61614   0.61939   0.62313
 Alpha virt. eigenvalues --    0.62478   0.63816   0.63959   0.64780   0.64861
 Alpha virt. eigenvalues --    0.65883   0.66052   0.66651   0.66785   0.67786
 Alpha virt. eigenvalues --    0.68097   0.68312   0.68529   0.69346   0.69565
 Alpha virt. eigenvalues --    0.70252   0.70531   0.70838   0.71059   0.71645
 Alpha virt. eigenvalues --    0.72005   0.72803   0.73277   0.73518   0.73901
 Alpha virt. eigenvalues --    0.74011   0.75973   0.76103   0.76542   0.77354
 Alpha virt. eigenvalues --    0.77988   0.78489   0.79186   0.79378   0.80062
 Alpha virt. eigenvalues --    0.80564   0.81850   0.82813   0.83983   0.86167
 Alpha virt. eigenvalues --    0.87046   0.88598   0.89421   0.90247   0.91089
 Alpha virt. eigenvalues --    0.91909   0.92141   0.92294   0.92729   0.93386
 Alpha virt. eigenvalues --    0.93762   0.94021   0.94986   0.95415   0.95721
 Alpha virt. eigenvalues --    0.95924   0.96324   0.96711   0.97231   0.97822
 Alpha virt. eigenvalues --    0.98123   0.98653   0.99488   0.99588   0.99961
 Alpha virt. eigenvalues --    1.00739   1.01505   1.01707   1.02208   1.02811
 Alpha virt. eigenvalues --    1.03444   1.04275   1.04619   1.05006   1.05380
 Alpha virt. eigenvalues --    1.05528   1.05734   1.05918   1.06471   1.06767
 Alpha virt. eigenvalues --    1.07319   1.07706   1.08088   1.08266   1.08419
 Alpha virt. eigenvalues --    1.08767   1.09565   1.10052   1.10588   1.11228
 Alpha virt. eigenvalues --    1.11952   1.12124   1.12582   1.12929   1.13309
 Alpha virt. eigenvalues --    1.13828   1.14346   1.15926   1.16596   1.17271
 Alpha virt. eigenvalues --    1.17610   1.20843   1.21238   1.21648   1.24974
 Alpha virt. eigenvalues --    1.27640   1.27926   1.30423   1.30743   1.31525
 Alpha virt. eigenvalues --    1.32190   1.32791   1.33269   1.33780   1.35067
 Alpha virt. eigenvalues --    1.35874   1.36314   1.36701   1.37171   1.37414
 Alpha virt. eigenvalues --    1.38860   1.39720   1.40390   1.40917   1.42328
 Alpha virt. eigenvalues --    1.42862   1.43520   1.45055   1.48099   1.48709
 Alpha virt. eigenvalues --    1.49300   1.50116   1.50643   1.51266   1.51785
 Alpha virt. eigenvalues --    1.51915   1.52356   1.52706   1.53214   1.53632
 Alpha virt. eigenvalues --    1.53699   1.54346   1.54756   1.55183   1.55875
 Alpha virt. eigenvalues --    1.56394   1.57688   1.59791   1.60283   1.61372
 Alpha virt. eigenvalues --    1.61708   1.62307   1.62715   1.63066   1.63337
 Alpha virt. eigenvalues --    1.63647   1.64375   1.64549   1.64872   1.64954
 Alpha virt. eigenvalues --    1.65533   1.66004   1.66232   1.66752   1.66876
 Alpha virt. eigenvalues --    1.67240   1.67575   1.67718   1.68034   1.68307
 Alpha virt. eigenvalues --    1.69521   1.69772   1.70240   1.70542   1.70742
 Alpha virt. eigenvalues --    1.71554   1.71951   1.72020   1.73479   1.73970
 Alpha virt. eigenvalues --    1.74612   1.75201   1.75728   1.76236   1.76724
 Alpha virt. eigenvalues --    1.78113   1.78256   1.79201   1.79771   1.80058
 Alpha virt. eigenvalues --    1.80381   1.80702   1.80864   1.81162   1.81470
 Alpha virt. eigenvalues --    1.82404   1.82625   1.83064   1.84340   1.84990
 Alpha virt. eigenvalues --    1.85349   1.85886   1.86175   1.86633   1.87024
 Alpha virt. eigenvalues --    1.87404   1.87693   1.88063   1.88497   1.88681
 Alpha virt. eigenvalues --    1.88831   1.89389   1.90152   1.90551   1.91050
 Alpha virt. eigenvalues --    1.91358   1.92353   1.93006   1.93937   1.94799
 Alpha virt. eigenvalues --    1.95116   1.97204   1.97348   1.98365   1.99076
 Alpha virt. eigenvalues --    1.99334   2.00281   2.00488   2.00571   2.01012
 Alpha virt. eigenvalues --    2.01908   2.02598   2.03038   2.03421   2.03733
 Alpha virt. eigenvalues --    2.04180   2.05839   2.07792   2.08486   2.10398
 Alpha virt. eigenvalues --    2.11483   2.13154   2.14273   2.15980   2.16373
 Alpha virt. eigenvalues --    2.17063   2.18990   2.19521   2.21514   2.22993
 Alpha virt. eigenvalues --    2.23375   2.23677   2.26526   2.27179   2.28809
 Alpha virt. eigenvalues --    2.29262   2.30131   2.30387   2.31333   2.33166
 Alpha virt. eigenvalues --    2.35706   2.37011   2.38301   2.39599   2.40310
 Alpha virt. eigenvalues --    2.40359   2.42168   2.42516   2.44009   2.44297
 Alpha virt. eigenvalues --    2.45180   2.46218   2.46429   2.46664   2.46724
 Alpha virt. eigenvalues --    2.46953   2.47715   2.49218   2.49755   2.49977
 Alpha virt. eigenvalues --    2.51117   2.56489   2.56973   2.58004   2.63022
 Alpha virt. eigenvalues --    2.65146   2.65568   2.66127   2.69540   2.70618
 Alpha virt. eigenvalues --    2.71559   2.72316   2.72621   2.73113   2.74319
 Alpha virt. eigenvalues --    2.76727   2.76927   2.82069   2.82877   2.85346
 Alpha virt. eigenvalues --    2.85393   2.87991   2.88328   2.93177   2.95503
 Alpha virt. eigenvalues --    2.95724   3.00693   3.08881   3.12861   3.14666
 Alpha virt. eigenvalues --    3.17889   3.57002   3.59482   3.59772   3.68875
 Alpha virt. eigenvalues --    3.68904   3.72730   3.75792   3.76374   3.91548
 Alpha virt. eigenvalues --    4.02507   4.06393   4.14361   4.16229
          Condensed to atoms (all electrons):
 Mulliken charges:
               1
     1  N   -0.182651
     2  C    0.112977
     3  C   -0.014185
     4  C   -0.071132
     5  C    0.119702
     6  C    0.007307
     7  C    0.008479
     8  C    0.003244
     9  C    0.008482
    10  C    0.006370
    11  C   -0.101189
    12  C    0.107093
    13  C    0.113370
    14  C   -0.066496
    15  C   -0.017617
    16  C    0.113010
    17  N   -0.180240
    18  F   -0.225716
    19  B    0.189203
    20  F   -0.220398
    21  H    0.057854
    22  H    0.021129
    23  H    0.017968
    24  H    0.022862
    25  H    0.021913
    26  H    0.023113
    27  H    0.019223
    28  H    0.021398
    29  H    0.057336
    30  C    0.010799
    31  C   -0.026256
    32  C   -0.030502
    33  C    0.009286
    34  C    0.008910
    35  C   -0.003806
    36  H    0.003170
    37  H    0.003665
    38  H    0.012713
    39  H    0.013725
    40  H    0.011843
    41  C    0.011077
    42  C   -0.025499
    43  C   -0.030228
    44  C    0.009100
    45  C    0.008901
    46  C   -0.004409
    47  H    0.001848
    48  H    0.004634
    49  H    0.012743
    50  H    0.013954
    51  H    0.011924
 Sum of Mulliken charges =   0.00000
 Mulliken charges with hydrogens summed into heavy atoms:
               1
     1  N   -0.182651
     2  C    0.170831
     3  C   -0.014185
     4  C   -0.050003
     5  C    0.119702
     6  C    0.025275
     7  C    0.031341
     8  C    0.025157
     9  C    0.031595
    10  C    0.025593
    11  C   -0.101189
    12  C    0.107093
    13  C    0.113370
    14  C   -0.045097
    15  C   -0.017617
    16  C    0.170346
    17  N   -0.180240
    18  F   -0.225716
    19  B    0.189203
    20  F   -0.220398
    30  C    0.010799
    31  C   -0.023086
    32  C   -0.026837
    33  C    0.021999
    34  C    0.022634
    35  C    0.008038
    41  C    0.011077
    42  C   -0.023651
    43  C   -0.025595
    44  C    0.021843
    45  C    0.022855
    46  C    0.007515
 APT charges:
               1
     1  N   -1.492358
     2  C   -0.332258
     3  C    2.970837
     4  C   -0.711083
     5  C   -0.602080
     6  C   -0.097180
     7  C   -0.584707
     8  C   -0.458058
     9  C   -0.297211
    10  C   -0.870414
    11  C    0.016513
    12  C   -0.114708
    13  C   -0.392475
    14  C   -0.782707
    15  C   -0.926448
    16  C   -0.554752
    17  N    0.613011
    18  F    1.796969
    19  B   -0.393667
    20  F   -1.376264
    21  H    2.005784
    22  H    0.005707
    23  H   -1.675117
    24  H   -1.745250
    25  H    0.321668
    26  H    2.542484
    27  H    2.746780
    28  H   -0.752252
    29  H    1.191888
    30  C   -3.589882
    31  C   -0.099373
    32  C   -0.735193
    33  C   -0.326075
    34  C   -0.011270
    35  C   -0.420926
    36  H   -2.005607
    37  H    0.621000
    38  H    0.416146
    39  H    3.063103
    40  H    3.031879
    41  C    0.240360
    42  C   -0.116274
    43  C   -0.942426
    44  C   -0.577266
    45  C   -0.299648
    46  C   -0.459070
    47  H   -0.951509
    48  H    1.966635
    49  H   -1.021053
    50  H    1.824662
    51  H    0.339132
 Sum of APT charges =   0.00000
 APT charges with hydrogens summed into heavy atoms:
               1
     1  N   -1.492358
     2  C    1.673526
     3  C    2.970837
     4  C   -0.705376
     5  C   -0.602080
     6  C   -1.772297
     7  C   -2.329957
     8  C   -0.136389
     9  C    2.245273
    10  C    1.876366
    11  C    0.016513
    12  C   -0.114708
    13  C   -0.392475
    14  C   -1.534959
    15  C   -0.926448
    16  C    0.637136
    17  N    0.613011
    18  F    1.796969
    19  B   -0.393667
    20  F   -1.376264
    30  C   -3.589882
    31  C   -2.104980
    32  C   -0.114193
    33  C    0.090071
    34  C    3.051833
    35  C    2.610952
    41  C    0.240360
    42  C   -1.067782
    43  C    1.024210
    44  C   -1.598319
    45  C    1.525014
    46  C   -0.119938
 Electronic spatial extent (au):  <R**2>=         181481.5464
 Charge=              0.0000 electrons
 Dipole moment (field-independent basis, Debye):
    X=              2.1049    Y=              5.4498    Z=              2.0348  Tot=              6.1864
 Quadrupole moment (field-independent basis, Debye-Ang):
   XX=           -119.4890   YY=           -253.2260   ZZ=           -171.8475
   XY=             48.8546   XZ=              3.7061   YZ=            -13.2649
 Traceless Quadrupole moment (field-independent basis, Debye-Ang):
   XX=             62.0318   YY=            -71.7051   ZZ=              9.6733
   XY=             48.8546   XZ=              3.7061   YZ=            -13.2649
 Octapole moment (field-independent basis, Debye-Ang**2):
  XXX=          -5163.3699  YYY=           5213.2393  ZZZ=            -75.1622  XYY=          -2886.9897
  XXY=           1794.9135  XXZ=           -208.7404  XZZ=          -2048.3824  YZZ=           1394.6036
  YYZ=             87.4873  XYZ=             43.9148
 Hexadecapole moment (field-independent basis, Debye-Ang**3):
 XXXX=        -139097.1185 YYYY=         -84965.8018 ZZZZ=         -10664.2630 XXXY=          52023.3160
 XXXZ=          -1621.5698 YYYX=          60477.5200 YYYZ=           -858.5190 ZZZX=           2748.1752
 ZZZY=            207.9082 XXYY=         -46479.1616 XXZZ=         -26941.3248 YYZZ=         -13661.5451
 XXYZ=           2859.0889 YYXZ=            392.9754 ZZXY=          16431.2362
 N-N= 2.847997163782D+03 E-N=-8.895864943559D+03  KE= 1.365648541518D+03
  Exact polarizability:   0.000   0.000   0.000   0.000   0.000   0.000
 Approx polarizability: 440.968  31.074 466.574-208.321  39.042 438.865
 No NMR shielding tensors so no spin-rotation constants.
 Leave Link  601 at Wed Apr 22 10:40:11 2020, MaxMem= 12079595520 cpu:        10.6
 (Enter /scratch/prg/gaussian/bin/g09/linda-exe/l701.exel)
 Compute integral second derivatives.
 ... and contract with generalized density number  0.
 D2PCM: C-PCM CHGder 2nd derivatives, FixD1E=F FixD2E=F DoIter=F DoCFld=F I1PDM=0
 GePol: Maximum number of non-zero 2nd derivatives   =     215
 Leave Link  701 at Wed Apr 22 10:40:30 2020, MaxMem= 12079595520 cpu:       217.1
 (Enter /scratch/prg/gaussian/bin/g09/l702.exe)
 L702 exits ... SP integral derivatives will be done elsewhere.
 Leave Link  702 at Wed Apr 22 10:40:30 2020, MaxMem= 12079595520 cpu:         0.3
 (Enter /scratch/prg/gaussian/bin/g09/linda-exe/l703.exel)
 Compute integral second derivatives, UseDBF=F ICtDFT=           0.
 Integral derivatives from FoFJK, PRISM(SPDF).
 Calling FoFJK, ICntrl=    100147 FMM=F ISym2X=0 I1Cent= 0 IOpClX= 0 NMat=1 NMatS=1 NMatT=0.
 FoFJK:  IHMeth= 1 ICntrl=  100147 DoSepK=F KAlg= 0 I1Cent=   0 FoldK=F
 IRaf=         0 NMat=   1 IRICut=       1 DoRegI=T DoRafI=F ISym2E= 0.
 FoFCou: FMM=F IPFlag=           0 FMFlag=      100000 FMFlg1=         800
         NFxFlg=           0 DoJE=F BraDBF=F KetDBF=F FulRan=T
         wScrn=  0.000000 ICntrl=  100147 IOpCl=  0 I1Cent=           0 NGrid=           0
         NMat0=    1 NMatS0=      1 NMatT0=    0 NMatD0=    1 NMtDS0=    0 NMtDT0=    0
 Symmetry not used in FoFCou.
 Leave Link  703 at Wed Apr 22 10:50:08 2020, MaxMem= 12079595520 cpu:      6889.2
 (Enter /scratch/prg/gaussian/bin/g09/l716.exe)
 Dipole        = 8.28123150D-01 2.14410807D+00 8.00556242D-01
 Polarizability= 0.00000000D+00 0.00000000D+00 0.00000000D+00
                 0.00000000D+00 0.00000000D+00 0.00000000D+00
 -------------------------------------------------------------------
 Center     Atomic                   Forces (Hartrees/Bohr)
 Number     Number              X              Y              Z
 -------------------------------------------------------------------
      1        7           0.000107138   -0.000123250    0.000068719
      2        6           0.001814048   -0.000929631    0.001665630
      3        6           0.000565641    0.000021048    0.000862375
      4        6          -0.002082253    0.000898175   -0.001864473
      5        6          -0.000164872    0.000139822   -0.000238090
      6        6          -0.000029508   -0.000039152   -0.000000357
      7        6           0.000024000    0.000023506    0.000013296
      8        6          -0.000021851   -0.000024132   -0.000014271
      9        6          -0.000013726    0.000074488    0.000017934
[...]
 000127,0.01130695,-0.01668961,-0.01309552,-0.00237000,-0.00344329,0.00
 315787,0.08836229,-0.25890391,-0.09699207,-0.00063638,0.00004402,0.000
 78824,-0.00246148,0.00488125,0.00280054,-0.00042054,0.00174371,0.00076
 416,0.00056735,-0.00104942,-0.00071797,-0.09488823,0.27146389,-0.00000
 770,-0.00006544,-0.00001000,-0.00008241,-0.00001608,0.00006913,0.00003
 552,0.00011307,0.00002681,0.00007062,-0.00002531,-0.00009840,-0.000124
 68,0.00007737,0.00017005,-0.00001163,0.00000020,0.00000894,-0.00000734
 ,-0.00000421,-0.00000604,0.00000164,-0.00000560,-0.00000191,-0.0000026
 1,-0.00000165,-0.00000218,0.00001533,-0.00001125,-0.00000796,-0.000013
 74,0.00000010,-0.00000199,0.00028058,0.00002637,-0.00020647,-0.0001572
 3,-0.00035210,0.00013872,-0.00019839,-0.00017174,0.00013120,-0.0017738
 1,-0.00018402,-0.00146573,0.00035314,0.00063758,-0.00076988,-0.0000433
 2,0.00019478,0.00005228,-0.00005699,0.00004992,0.00002358,0.00007029,-
 0.00009538,-0.00012838,0.00000690,0.00002110,0.00005297,0.00000113,-0.
 00000326,0.00000073,-0.00000136,-0.00000097,-0.00000167,-0.00000530,0.
 00000628,0.00000083,0.00000065,-0.00000290,-0.00000086,-0.00000090,-0.
 00000221,0.00000084,-0.00000245,-0.00000323,-0.00000007,0.00000085,0.0
 0000057,0.00000563,-0.00006846,-0.00000814,-0.00000635,0.00064244,0.00
 015425,-0.00121868,0.00001802,-0.00000381,-0.00001861,-0.00000630,0.00
 000252,0.00000671,-0.00001104,-0.00000022,0.00000842,-0.00000166,0.000
 00351,0.00000082,0.00000341,-0.00000236,-0.00000110,-0.00000582,-0.000
 00224,0.00000622,0.00000151,0.00000161,-0.00000208,0.00000232,-0.00000
 287,-0.00000228,-0.00000130,-0.00000137,0.00000158,-0.00000120,0.00000
 160,0.00000174,-0.00000114,-0.00000013,0.00000105,-0.00376381,0.009247
 37,0.00799005,0.00363674,0.00225183,0.00219105,0.05167279,-0.09622869,
 -0.09551974,-0.00016194,0.00057963,-0.00059366,0.00782390,-0.02129480,
 -0.00508177,0.00642742,0.00160993,-0.00014230,-0.00016421,0.00053804,0
 .00039321,-0.06150514,0.10394251,0.09597270,-0.00000665,-0.00005024,-0
 .00002259,-0.00005898,-0.00001251,0.00005481,0.00002417,0.00007955,0.0
 0002252,0.00005275,-0.00001586,-0.00006503,-0.00008352,0.00005019,0.00
 012540,-0.00001007,-0.00000133,0.00000618,-0.00000413,0.00000018,-0.00
 000668,-0.00000236,-0.00000589,-0.00000457,-0.00000013,-0.00000545,-0.
 00000340,0.00001415,-0.00000304,-0.00000645,-0.00000349,-0.00000561,-0
 .00000001,0.00017483,0.00007356,-0.00014502,-0.00018443,-0.00007759,0.
 00015683,0.00010884,0.00005598,-0.00007864,0.00002934,0.00083644,0.000
 15856,-0.00031424,-0.00012366,0.00008944,-0.00007422,0.00010477,0.0002
 0473,-0.00001061,0.00003009,0.00000355,0.00001880,-0.00008940,-0.00006
 073,0.00001251,0.00001555,0.00003059,-0.00000046,-0.00000148,-0.000000
 44,-0.00000155,-0.00000052,-0.00000007,-0.00000313,0.00000662,0.000002
 61,0.00000082,-0.00000530,0.00000298,-0.00000193,-0.00000266,0.0000020
 4,-0.00000194,-0.00000230,0.00000125,0.00000132,0.00000024,0.00000444,
 -0.00000872,0.00000384,0.00002605,0.00000902,0.00000697,-0.00000489,0.
 00001010,-0.00000172,-0.00001273,-0.00000407,0.00000212,0.00000389,-0.
 00000681,0.00000005,0.00000553,-0.00000105,0.00000217,0.00000063,0.000
 00235,-0.00000145,-0.00000062,-0.00000371,-0.00000169,0.00000395,0.000
 00101,0.00000073,-0.00000123,0.00000116,-0.00000180,-0.00000148,-0.000
 00088,-0.00000086,0.00000117,-0.00000064,0.00000088,0.00000093,-0.0000
 0067,-0.00000005,0.00000057,0.00267134,-0.00104408,0.00623416,-0.00259
 395,0.01737243,0.00710006,-0.00075168,-0.00057790,-0.00006002,-0.08289
 179,0.08628398,0.05198597,0.00410830,-0.00188098,0.00386663,0.00676042
 ,-0.00848950,-0.00338221,-0.00216878,-0.00023384,-0.00267207,-0.000654
 65,0.00006881,-0.00059650,0.07779123,-0.00000300,0.00005239,0.00003059
 ,0.00005952,0.00001018,-0.00005774,-0.00002688,-0.00008200,-0.00002125
 ,-0.00005370,0.00001684,0.00006585,0.00008172,-0.00005047,-0.00011955,
 0.00000891,0.00000054,-0.00000709,0.00000350,0.00000189,0.00000192,-0.
 00000026,0.00000232,0.00000066,-0.00000049,0.00000211,0.00000124,-0.00
 000794,0.00000303,0.00000384,-0.00000009,0.00000454,-0.00000095,-0.000
 15730,-0.00005224,0.00013866,0.00013997,0.00006627,-0.00012449,-0.0000
 7968,-0.00007483,0.00004968,-0.00008615,0.00021274,0.00018031,-0.00000
 571,0.00002849,0.00002555,0.00005624,-0.00003831,-0.00007921,0.0000056
 2,-0.00002249,-0.00000620,0.00000188,0.00005237,0.00005564,-0.00001392
 ,-0.00001032,-0.00002443,0.00000051,0.00000142,0.00000068,0.00000064,0
 .00000052,0.00000159,0.00000222,-0.00000365,0.00000298,-0.00000076,0.0
 0000078,0.00000146,0.00000049,0.00000145,-0.00000010,0.00000157,0.0000
 0124,0.00000001,-0.00000104,-0.00000043,-0.00000254,-0.00001549,-0.000
 01045,0.00000297,0.00000345,0.00000080,0.00000844,-0.00001085,0.000001
 32,0.00001359,0.00000383,-0.00000162,-0.00000425,0.00000702,-0.0000002
 0,-0.00000608,0.00000090,-0.00000270,-0.00000077,-0.00000261,0.0000017
 2,0.00000050,0.00000378,0.00000172,-0.00000429,-0.00000078,-0.00000099
 ,0.00000163,-0.00000105,0.00000196,0.00000184,0.00000098,0.00000104,-0
 .00000097,0.00000082,-0.00000109,-0.00000085,0.00000096,0.00000006,-0.
 00000062,-0.00079057,0.00171973,0.00095893,-0.00252971,0.00505498,0.00
 303385,-0.00059319,0.00005632,0.00068989,0.08626228,-0.25960324,-0.100
 68540,-0.00233760,-0.00356195,0.00298662,0.01162987,-0.01649214,-0.013
 71468,0.00016680,0.00067904,-0.00026801,0.00007037,-0.00001840,-0.0001
 0102,-0.09226746,0.27194670,-0.00001016,0.00007536,0.00004158,0.000097
 28,0.00001524,-0.00008847,-0.00003864,-0.00012530,-0.00003309,-0.00008
 264,0.00002530,0.00010010,0.00012630,-0.00007547,-0.00018472,0.0000201
 4,0.00000509,-0.00000759,0.00000477,-0.00000232,0.00000506,0.00000190,
 0.00000758,0.00000326,-0.00000161,0.00000579,0.00000165,-0.00001741,0.
 00000602,0.00000666,0.00000141,0.00000347,0.00000090,-0.00024921,-0.00
 009163,0.00021030,0.00026592,0.00015685,-0.00019940,-0.00025332,-0.000
 09475,0.00009788,0.00012859,-0.00103281,0.00007124,0.00021307,0.000173
 36,-0.00024296,0.00003767,-0.00017430,-0.00020847,0.00000439,-0.000038
 28,-0.00000615,0.00002403,0.00010493,0.00007940,-0.00003149,-0.0000163
 8,-0.00003857,0.00000135,0.00000229,0.00000044,0.00000230,0.00000030,0
 .00000176,0.00000510,-0.00000982,-0.00000145,0.00000099,0.00000722,-0.
 00000051,0.00000152,0.00000165,-0.00000058,0.00000101,0.00000240,0.000
 00015,-0.00000251,-0.00000015,-0.00000385,0.00000845,0.00000201,0.0000
 2546,0.00000925,-0.00001711,-0.00001625,-0.00001507,0.00000221,0.00001
 800,0.00000520,-0.00000308,-0.00000586,0.00000961,-0.00000011,-0.00000
 859,0.00000125,-0.00000325,-0.00000133,-0.00000387,0.00000201,0.000000
 70,0.00000511,0.00000259,-0.00000599,-0.00000084,-0.00000102,0.0000023
 0,-0.00000119,0.00000263,0.00000270,0.00000158,0.00000126,-0.00000135,
 0.00000123,-0.00000127,-0.00000110,0.00000124,0.00000010,-0.00000057,0
 .00637869,0.00135666,-0.00000375,0.00741783,-0.02079849,-0.00479309,0.
 00000839,0.00077461,-0.00084353,0.05217880,-0.10027494,-0.10050011,0.0
 0369792,0.00246340,0.00290060,-0.00366324,0.00992611,0.00818398,-0.002
 69123,0.00006906,-0.00105288,-0.00059666,-0.00011671,-0.00042587,-0.06
 044536,0.10763180,0.09790326,0.00000548,-0.00004497,-0.00003345,-0.000
 06462,-0.00001135,0.00006188,0.00002560,0.00008570,0.00002235,0.000055
 88,-0.00001470,-0.00006696,-0.00008520,0.00004193,0.00012656,-0.000008
 17,-0.00000071,0.00000640,-0.00000383,-0.00000116,-0.00000234,-0.00000
 015,-0.00000332,-0.00000142,-0.00000047,-0.00000182,-0.00000185,0.0000
 0916,-0.00000444,-0.00000408,-0.00000011,0.00000009,0.00000090,0.00015
 097,0.00006118,-0.00012160,-0.00020046,-0.00014307,0.00007266,-0.00010
 985,0.00014204,0.00008928,0.00013977,-0.00109255,-0.00001143,-0.000044
 87,-0.00005822,-0.00009443,-0.00005143,0.00010593,0.00015031,-0.000010
 01,0.00005157,-0.00000496,0.00000775,-0.00010401,-0.00005162,0.0000117
 0,0.00002008,0.00002230,-0.00000049,-0.00000207,0.00000092,-0.00000011
 ,-0.00000082,-0.00000113,-0.00000277,0.00000443,-0.00000168,0.00000046
 ,-0.00000155,-0.00000054,-0.00000063,-0.00000138,0.00000049,-0.0000015
 9,-0.00000186,0.00000011,0.00000040,0.00000016,0.00000346,-0.00000119,
 -0.00001119,0.00000046,0.00001656,0.00001519,0.00000396,0.00000997,-0.
 00000089,-0.00001241,-0.00000351,0.00000162,0.00000350,-0.00000727,-0.
 00000076,0.00000603,-0.00000108,0.00000247,0.00000076,0.00000242,-0.00
 000111,-0.00000068,-0.00000371,-0.00000162,0.00000398,0.00000079,0.000
 00093,-0.00000126,0.00000127,-0.00000159,-0.00000158,-0.00000074,-0.00
 000075,0.00000093,-0.00000084,0.00000095,0.00000119,-0.00000066,-0.000
 00008,0.00000053,0.00228699,0.00054334,0.00653353,-0.00093635,0.000557
 77,0.00013615,-0.00079541,-0.01817864,0.00577704,0.00394985,0.00228111
 ,0.00412279,-0.06813439,-0.07027898,0.03633697,0.00691788,0.01046187,-
 0.00377450,-0.00063578,-0.00009266,-0.00060059,-0.00205043,0.00005552,
 -0.00270593,0.00021548,0.00055822,-0.00016685,0.06148882,0.00000910,-0
 .00006285,-0.00004298,-0.00008003,-0.00001325,0.00007683,0.00003536,0.
 00010709,0.00002706,0.00006997,-0.00002122,-0.00008542,-0.00010583,0.0
 0006400,0.00015138,-0.00001008,-0.00000045,0.00000841,-0.00000429,-0.0
 0000211,-0.00000181,0.00000038,-0.00000256,-0.00000041,0.00000039,-0.0
 0000191,-0.00000107,0.00000912,-0.00000398,-0.00000446,-0.00000059,-0.
 00000573,0.00000102,0.00020031,0.00006007,-0.00017677,-0.00018783,-0.0
 0009273,0.00016845,0.00013006,0.00010583,-0.00008127,0.00007643,-0.000
 18860,-0.00018882,-0.00005110,-0.00003834,0.00002385,-0.00004988,0.000
 06884,0.00009887,-0.00000565,0.00003552,0.00000320,-0.00001114,-0.0000
 8175,-0.00005629,0.00002039,0.00001652,0.00002821,-0.00000091,-0.00000
 208,-0.00000025,-0.00000046,-0.00000077,-0.00000220,-0.00000221,0.0000
 0393,-0.00000336,0.00000080,-0.00000059,-0.00000181,-0.00000038,-0.000
 00138,-0.00000014,-0.00000168,-0.00000153,-0.00000030,0.00000092,0.000
 00037,0.00000299,0.00001193,0.00000410,-0.00000047,-0.00000035,-0.0000
 0405,-0.00001081,0.00001301,-0.00000152,-0.00001626,-0.00000441,0.0000
 0199,0.00000492,-0.00000886,-0.00000025,0.00000766,-0.00000121,0.00000
 340,0.00000109,0.00000330,-0.00000195,-0.00000063,-0.00000464,-0.00000
 212,0.00000527,0.00000085,0.00000125,-0.00000194,0.00000132,-0.0000023
 0,-0.00000237,-0.00000113,-0.00000119,0.00000109,-0.00000113,0.0000013
 5,0.00000118,-0.00000115,-0.00000010,0.00000072,0.00022081,0.00198449,
 -0.00026391,0.00049137,0.00027745,-0.00061466,0.00151383,0.00192280,-0
 .00175758,0.00265385,-0.00264002,-0.00305449,-0.07069658,-0.29130650,0
 .08926205,-0.00901224,-0.01662313,0.01119022,-0.00007533,-0.00004736,0
 .00007782,-0.00017099,0.00068230,0.00016478,-0.00044310,-0.00099408,0.
 00053209,0.07549861,0.30578171,-0.00001410,0.00005395,0.00004270,0.000
 08179,0.00001500,-0.00007768,-0.00003322,-0.00010691,-0.00002756,-0.00
 007240,0.00001819,0.00008096,0.00010878,-0.00005037,-0.00015539,0.0000
 1070,0.00000157,-0.00000697,0.00000408,0.00000098,0.00000207,-0.000000
 08,0.00000361,0.00000091,0.,0.00000203,0.00000126,-0.00000972,0.000005
 03,0.00000340,-0.00000019,0.00000095,-0.00000141,-0.00017446,-0.000085
 34,0.00016248,0.00026093,0.00016431,-0.00015571,-0.00002150,-0.0001447
 1,-0.00025568,0.00013247,0.00128904,0.00013541,0.00003687,0.00003444,0
 .00003712,0.00007259,-0.00009979,-0.00015863,0.00000212,-0.00005809,-0
 .00000153,0.00002147,0.00012733,0.00008021,-0.00003351,-0.00002726,-0.
 00003779,0.00000189,0.00000237,-0.00000052,0.00000068,0.00000068,0.000
 00218,0.00000343,-0.00000526,0.00000257,-0.00000031,0.00000206,0.00000
 128,0.00000063,0.00000120,0.00000001,0.00000122,0.00000156,0.00000058,
 -0.00000088,-0.00000014,-0.00000259,-0.00001555,0.00000045,0.00000945,
 0.00001976,0.00000190,-0.00002383,-0.00001144,0.00000081,0.00001490,0.
 00000374,-0.00000224,-0.00000451,0.00000838,0.00000098,-0.00000768,0.0
 0000110,-0.00000308,-0.00000131,-0.00000330,0.00000141,0.00000042,0.00
 000423,0.00000202,-0.00000504,-0.00000053,-0.00000108,0.00000192,-0.00
 000095,0.00000200,0.00000251,0.00000116,0.00000095,-0.00000091,0.00000
 133,-0.00000115,-0.00000114,0.00000107,0.00000011,-0.00000043,0.006404
 80,-0.00062134,0.00005567,0.00005378,-0.00062110,-0.00087081,0.0054420
 4,0.02227778,-0.00344970,0.00428689,-0.00251031,0.00214036,0.03611941,
 0.08912296,-0.08382583,-0.00346223,-0.01298705,0.00823198,-0.00060525,
 0.00007560,-0.00040636,-0.00266584,-0.00027017,-0.00115329,-0.00016427
 ,-0.00067836,0.00027983,-0.04339066,-0.09541590,0.08056183,-0.00001409
 ,-0.00001311,0.00001371,-0.00000949,-0.00000322,0.00000324,0.00000389,
 0.00001775,0.00000567,0.00001113,-0.00000463,-0.00001560,-0.00002286,0
 .00001515,0.00003124,0.00000198,-0.00000039,0.00000419,-0.00000387,-0.
 00000069,-0.00000059,0.00000045,-0.00000074,-0.00000066,-0.00000091,-0
 .00000076,-0.00000089,0.00000395,-0.00000329,-0.00000178,-0.00000610,0
 .00000085,-0.00000032,0.00004875,0.00000393,-0.00003199,-0.00003314,-0
 .00001303,-0.00003532,-0.00005057,0.00000395,0.00010377,-0.00060196,0.
 00001951,-0.00055146,0.00005962,-0.00000888,-0.00008639,-0.00010223,0.
 00003029,0.00011182,-0.00001422,0.00002032,0.00000956,0.00005177,-0.00
 005085,-0.00006899,-0.00000083,0.00001132,0.00002738,0.00000096,-0.000
 00062,-0.00000021,-0.00000012,-0.00000033,-0.00000047,-0.00000206,0.00
 000223,-0.00000220,0.00000082,0.00000037,-0.00000016,-0.00000053,-0.00
 000116,0.00000024,-0.00000125,-0.00000087,0.00000021,0.00000032,0.0000
 0061,0.00000135,0.00003702,-0.00001964,0.00003423,0.00003879,-0.000027
 58,-0.00001345,0.00000591,-0.00000104,-0.00000630,-0.00000232,0.000000
 18,0.00000231,-0.00000303,0.00000036,0.00000244,-0.00000029,0.00000099
 ,-0.00000020,0.00000071,-0.00000088,-0.00000036,-0.00000175,-0.0000003
 7,0.00000176,0.00000065,0.00000065,-0.00000058,0.00000085,-0.00000092,
 -0.00000055,-0.00000030,-0.00000050,0.00000052,-0.00000025,0.00000054,
 0.00000050,-0.00000035,-0.00000001,0.00000048,-0.00018678,0.00012305,-
 0.00074877,0.00477845,-0.00178949,0.00305656,0.00440794,0.00214309,0.0
 0355883,-0.00145285,0.00198503,0.00603014,-0.00268473,-0.00317099,0.00
 749996,-0.16323694,-0.01162169,0.15138746,-0.00015920,0.00012190,0.000
 30192,-0.00024892,-0.00010885,0.00041909,-0.00215871,-0.00008585,-0.00
 239098,-0.00214108,-0.00002892,-0.00240695,0.16368776,-0.00000362,0.00
 000608,0.00000717,0.00000619,0.00000029,-0.00000701,-0.00000269,-0.000
 00759,-0.00000137,-0.00000531,0.00000210,0.00000595,0.00000595,-0.0000
 0465,-0.00001214,0.00000360,0.00000047,0.00000150,-0.00000156,0.000001
 23,0.00000156,0.00000078,0.00000107,0.00000040,-0.00000085,0.00000034,
 -0.00000013,-0.00000102,0.00000015,0.00000098,0.00000091,-0.00000050,-
 0.00000010,-0.00001514,-0.00000666,0.00001769,0.00006067,0.00003925,-0
 .00004740,-0.00003321,-0.00002967,0.00000035,-0.00000405,0.00025086,0.
 00001804,-0.00001267,-0.00006301,-0.00004108,-0.00004425,0.00003765,0.
 00007947,-0.00000105,0.00000837,-0.00000112,0.00001001,-0.00001872,-0.
 00001279,0.00000036,0.00000474,0.00000531,0.00000007,0.00000020,0.0000
 0017,0.00000025,-0.00000002,-0.00000005,-0.00000007,0.00000036,-0.0000
 0374,0.00000046,0.00000131,-0.00000026,-0.00000044,-0.00000025,-0.0000
 0013,-0.00000022,0.00000021,-0.00000003,-0.00000036,0.,-0.00000043,0.0
 0003722,0.00002573,-0.00000824,-0.00000429,0.00002322,0.00004016,-0.00
 000026,0.00000003,0.00000054,0.00000005,-0.00000019,-0.00000005,0.0000
 0033,-0.00000005,-0.00000027,0.00000010,-0.00000005,-0.00000014,-0.000
 00022,0.00000008,0.00000006,0.00000014,0.00000012,-0.00000017,0.000000
 03,0.00000002,0.00000001,-0.00000003,0.00000009,0.00000014,0.00000003,
 0.,-0.00000002,0.00000005,-0.00000003,-0.00000004,0.00000003,0.0000000
 4,0.,0.00010613,-0.00144818,-0.00008868,-0.00122166,-0.00471093,0.0015
 4364,0.00170319,-0.00401546,-0.00200136,-0.01799496,0.00333690,0.02167
 142,0.01669598,0.00633143,-0.02023192,-0.01162466,-0.05893803,0.014237
 98,-0.00089693,-0.00003653,0.00110799,0.00086203,0.00011432,-0.0010339
 2,0.00035213,0.00109709,-0.00048220,-0.00043442,0.00102342,0.00047839,
 0.01245725,0.05697336,-0.00001420,0.00005850,0.00004809,0.00007552,0.0
 0001091,-0.00007447,-0.00003484,-0.00010104,-0.00002327,-0.00006768,0.
 00002086,0.00007949,0.00009611,-0.00005634,-0.00014434,0.00001190,-0.0
 0000035,-0.00000751,0.00000432,0.00000167,0.00000219,-0.00000160,0.000
 00256,-0.00000016,-0.00000109,0.00000102,0.00000050,-0.00000692,0.0000
 0261,0.00000326,-0.00000493,0.00000874,-0.00000175,-0.00017827,-0.0000
 6021,0.00018371,0.00019902,0.00013314,-0.00016244,-0.00013384,-0.00003
 050,0.00013432,-0.00057066,0.00016630,-0.00029029,0.00013952,-0.000034
 90,-0.00014033,-0.00009350,-0.00009865,-0.00001403,-0.00000076,-0.0000
 1772,-0.00000361,0.00003519,0.00003671,0.00002305,-0.00002007,-0.00000
 732,-0.00001596,0.00000110,0.00000191,0.00000068,0.00000054,0.00000050
 ,0.00000220,0.00000156,-0.00000352,0.00000315,-0.00000058,0.00000080,0
 .00000192,0.00000051,0.00000114,0.00000020,0.00000116,0.00000092,0.000
 00058,-0.00000113,-0.00000008,-0.00000205,-0.00000249,-0.00003362,0.00
 003240,0.00003343,-0.00000681,0.00002404,-0.00001113,0.00000118,0.0000
 1453,0.00000369,-0.00000201,-0.00000442,0.00000777,0.00000009,-0.00000
 690,0.00000105,-0.00000312,-0.00000120,-0.00000315,0.00000183,0.000000
 44,0.00000405,0.00000204,-0.00000477,-0.00000062,-0.00000108,0.0000019
 3,-0.00000097,0.00000218,0.00000230,0.00000115,0.00000111,-0.00000094,
 0.00000106,-0.00000120,-0.00000091,0.00000114,0.00000009,-0.00000058,-
 0.00070381,-0.00007564,0.00005345,0.00317083,0.00213808,0.00349774,0.0
 0342450,-0.00267288,0.00318327,0.00602398,-0.00229193,-0.00379892,0.00
 754122,0.00381537,-0.00554784,0.15137962,0.01424635,-0.22072282,0.0003
 4194,-0.00006918,-0.00031209,0.00038777,0.00019031,-0.00038800,-0.0023
 6046,0.00001810,-0.00126116,-0.00243347,-0.00005279,-0.00121973,-0.166
 24343,-0.01524412,0.22685705\\-0.00000060,0.00000024,-0.00000016,-0.00
 000078,-0.00000004,-0.00000029,-0.00000024,-0.00000032,-0.00000024,0.0
 0000004,-0.00000041,0.00000011,-0.00000014,-0.00000023,0.,0.00000124,0
 .,0.00000049,0.00000169,-0.00000013,0.00000072,0.00000187,-0.00000068,
 0.00000078,0.00000148,-0.00000112,0.00000058,0.00000083,-0.00000093,0.
 00000034,0.00000079,-0.00000031,0.00000032,0.00000023,-0.00000004,0.00
 000009,0.,0.00000017,-0.00000006,0.00000023,0.00000039,-0.00000001,-0.
 00000035,0.00000063,-0.00000003,-0.00000068,0.00000066,-0.00000035,-0.
 00000050,0.00000060,-0.00000022,-0.00000142,0.00000023,-0.00000059,-0.
 00000090,0.00000055,-0.00000036,-0.00000095,0.00000104,-0.00000036,-0.
 00000116,-0.00000001,-0.00000053,0.00000050,-0.00000060,0.00000019,0.0
 0000114,0.00000058,0.00000050,0.00000204,0.00000021,0.00000089,0.00000
 229,-0.00000083,0.00000095,0.00000157,-0.00000153,0.00000061,0.0000005
 7,-0.00000113,0.00000021,0.00000052,0.00000017,0.00000023,-0.00000116,
 0.00000083,-0.00000045,-0.00000042,-0.00000057,-0.00000012,0.00000014,
 -0.00000067,-0.00000005,-0.00000079,-0.00000068,-0.00000043,0.00000008
 ,-0.00000092,-0.00000004,-0.00000083,-0.00000086,-0.00000045,-0.000000
 47,-0.00000101,-0.00000017,0.00000050,-0.00000056,0.00000020,-0.000001
 26,-0.00000068,-0.00000052,0.00000044,-0.00000098,0.00000017,-0.000001
 30,-0.00000097,-0.00000057,-0.00000046,-0.00000116,-0.00000022,-0.0000
 0031,0.00000081,-0.00000012,0.00000014,0.00000093,0.00000014,-0.000000
 84,0.00000086,-0.00000030,0.00000013,0.00000107,0.00000012,-0.00000086
 ,0.00000106,-0.00000029,-0.00000035,0.00000116,-0.00000012,0.00000056,
 0.00000087,0.00000026,-0.00000119,0.00000076,-0.00000050,0.00000053,0.
 00000115,0.00000026,-0.00000123,0.00000111,-0.00000049,-0.00000037,0.0
 0000129,-0.00000012\\\@


 THERE'S A SUCKER BORN EVERY MINUTE

              -- PHINEAS TAYLOR (P.T.) BARNUM
 Warning:  fchk array  ILSW element          12 has value       6710886400000 set to -1.
 Job cpu time:       0 days  0 hours  0 minutes 37.0 seconds.
 File lengths (MBytes):  RWF=   1820 Int=      0 D2E=      0 Chk=     48 Scr=      1
 Normal termination of Gaussian 09 at Wed Apr 22 12:29:39 2020.
